<?xml version="1.0" encoding="UTF-8"?>
<UPF version="2.0.1">
  <PP_INFO><![CDATA[
Generated using "atomic" code by A. Dal Corso  v.6.6
Author: ADC
Generation date:  9Nov2022
Pseudopotential type: PAW
Element:  S
Functional:  SLA  PW   PBX  PBC
    Suggested minimum cutoff for wavefunctions:  39. Ry
    Suggested minimum cutoff for charge density: 157. Ry
    The Pseudo was generated with a Scalar-Relativistic Calculation
    L component and cutoff radius for Local Potential:  2   1.6000
    Valence configuration:
    nl pn  l   occ       Rcut    Rcut US       E pseu
    3S  1  0  2.00      1.500      1.700    -1.268329
    3P  2  1  4.00      1.500      1.700    -0.515140
    Generation configuration:
    3S  1  0  2.00      1.500      1.700    -1.268324
    3S  1  0  0.00      1.500      1.700     6.000000
    3P  2  1  4.00      1.500      1.700    -0.515137
    3P  2  1  0.00      1.500      1.700     3.000000
    3D  3  2  0.00      1.600      1.600     1.500000
    Pseudization used: troullier-martins
]]>
    <PP_INPUTFILE><![CDATA[
 &input
   title='S',
   zed=16.,
   rel=1,
   config='[Ne] 3s2 3p4 3d-1',
   iswitch=3,
   dft='PBE'
 /
 &inputp
   lpaw=.true.,
   pseudotype=3,
   file_pseudopw='S.pbe-nl-kjpaw_psl.1.0.0.UPF',
   author='ADC',
   lloc=2,
   which_augfun='PSQ',
   rmatch_augfun_nc=.true.,
   nlcc=.true.,
   new_core_ps=.true.,
   rcore=1.5,
   tm=.true.
 /
5
3S  1  0  2.00  0.00  1.50  1.70  0.0
3S  1  0  0.00  6.00  1.50  1.70  0.0
3P  2  1  4.00  0.00  1.50  1.70  0.0
3P  2  1  0.00  3.00  1.50  1.70  0.0
3D  3  2  0.00  1.50  1.60  1.60  0.0
]]></PP_INPUTFILE>
  </PP_INFO>
  <!--
 END OF HUMAN READABLE SECTION 
-->
  <PP_HEADER generated="Generated using &quot;atomic&quot; code by A. Dal Corso  v.6.6" author="ADC" date=" 9Nov2022" comment="" element=" S" pseudo_type="PAW" relativistic="scalar" is_ultrasoft="true" is_paw="true" is_coulomb="false" has_so="false" has_wfc="true" has_gipaw="false" paw_as_gipaw="false" core_correction="true" functional=" SLA  PW   PBX  PBC" z_valence="6.000000000000e0" total_psenergy="-6.599215027844e1" wfc_cutoff="3.913492223845e1" rho_cutoff="1.565396889538e2" l_max="1" l_max_rho="2" l_local="2" mesh_size="1151" number_of_wfc="2" number_of_proj="4"/>
  <PP_MESH dx="1.250000000000e-2" mesh="1151" xmin="-7.000000000000e0" rmax="1.000000000000e2" zmesh="1.600000000000e1">
    <PP_R>
      5.699262284715726e-5 5.770950179181389e-5 5.843539796353639e-5 5.917042478507836e-5
      5.991469710587625e-5 6.066833121999431e-5 6.143144488429616e-5 6.220415733684446e-5
      6.298658931553192e-5 6.377886307694716e-5 6.458110241547732e-5 6.539343268265116e-5
      6.621598080672564e-5 6.704887531251855e-5 6.789224634149111e-5 6.874622567208238e-5
      6.961094674030020e-5 7.048654466057078e-5 7.137315624685047e-5 7.227092003400361e-5
      7.317997629944840e-5 7.410046708507581e-5 7.503253621944381e-5 7.597632934025091e-5
      7.693199391709255e-5 7.789967927450308e-5 7.887953661528840e-5 7.987171904415153e-5
      8.087638159161550e-5 8.189368123824750e-5 8.292377693918697e-5 8.396682964898293e-5
      8.502300234674337e-5 8.609246006160108e-5 8.717536989849993e-5 8.827190106430510e-5
      8.938222489424216e-5 9.050651487866848e-5 9.164494669018143e-5 9.279769821106793e-5
      9.396494956109827e-5 9.514688312567074e-5 9.634368358430940e-5 9.755553793952076e-5
      9.878263554601357e-5 1.000251681402853e-4 1.012833298705817e-4 1.025573173272329e-4
      1.038473295733709e-4 1.051535681760338e-4 1.064762372376609e-4 1.078155434279839e-4
      1.091716960163200e-4 1.105449069042701e-4 1.119353906588294e-4 1.133433645459134e-4
      1.147690485643067e-4 1.162126654800376e-4 1.176744408611861e-4 1.191546031131298e-4
      1.206533835142318e-4 1.221710162519792e-4 1.237077384595748e-4 1.252637902529899e-4
      1.268394147684834e-4 1.284348582005912e-4 1.300503698405956e-4 1.316862021154771e-4
      1.333426106273568e-4 1.350198541934347e-4 1.367181948864303e-4 1.384378980755323e-4
      1.401792324678627e-4 1.419424701504629e-4 1.437278866328085e-4 1.455357608898571e-4
      1.473663754056395e-4 1.492200162173983e-4 1.510969729602815e-4 1.529975389125990e-4
      1.549220110416474e-4 1.568706900501124e-4 1.588438804230537e-4 1.608418904754813e-4
      1.628650324005311e-4 1.649136223182451e-4 1.669879803249656e-4 1.690884305433517e-4
      1.712153011730230e-4 1.733689245418431e-4 1.755496371578445e-4 1.777577797618104e-4
      1.799936973805152e-4 1.822577393806355e-4 1.845502595233404e-4 1.868716160195662e-4
      1.892221715859884e-4 1.916022935016964e-4 1.940123536655818e-4 1.964527286544487e-4
      1.989237997818542e-4 2.014259531576891e-4 2.039595797485093e-4 2.065250754386239e-4
      2.091228410919545e-4 2.117532826146695e-4 2.144168110186084e-4 2.171138424855033e-4
      2.198447984320080e-4 2.226101055755456e-4 2.254101960009832e-4 2.282455072281464e-4
      2.311164822801833e-4 2.340235697527863e-4 2.369672238842880e-4 2.399479046266352e-4
      2.429660777172582e-4 2.460222147518427e-4 2.491167932580182e-4 2.522502967699724e-4
      2.554232149040041e-4 2.586360434350273e-4 2.618892843740362e-4 2.651834460465463e-4
      2.685190431720212e-4 2.718965969442981e-4 2.753166351130254e-4 2.787796920661251e-4
      2.822863089132916e-4 2.858370335705421e-4 2.894324208458279e-4 2.930730325257257e-4
      2.967594374632173e-4 3.004922116665742e-4 3.042719383893602e-4 3.080992082215657e-4
      3.119746191818885e-4 3.158987768111759e-4 3.198722942670407e-4 3.238957924196703e-4
      3.279698999488365e-4 3.320952534421298e-4 3.362724974944262e-4 3.405022848086078e-4
      3.447852762975482e-4 3.491221411873812e-4 3.535135571220692e-4 3.579602102692866e-4
      3.624627954276338e-4 3.670220161352033e-4 3.716385847795059e-4 3.763132227087850e-4
      3.810466603447274e-4 3.858396372965938e-4 3.906929024767851e-4 3.956072142178591e-4
      4.005833403910239e-4 4.056220585261179e-4 4.107241559331008e-4 4.158904298250734e-4
      4.211216874428417e-4 4.264187461810517e-4 4.317824337159083e-4 4.372135881345007e-4
      4.427130580657578e-4 4.482817028130437e-4 4.539203924884307e-4 4.596300081486523e-4
      4.654114419327712e-4 4.712655972015797e-4 4.771933886787476e-4 4.831957425937544e-4
      4.892735968266109e-4 4.954279010544060e-4 5.016596168996976e-4 5.079697180807631e-4
      5.143591905637519e-4 5.208290327167381e-4 5.273802554657206e-4 5.340138824525841e-4
      5.407309501950396e-4 5.475325082485893e-4 5.544196193705162e-4 5.613933596859447e-4
      5.684548188559891e-4 5.756051002480087e-4 5.828453211080205e-4 5.901766127352632e-4
      5.976001206589690e-4 6.051170048173558e-4 6.127284397388642e-4 6.204356147256882e-4
      6.282397340395991e-4 6.361420170901168e-4 6.441436986250468e-4 6.522460289234066e-4
      6.604502739907909e-4 6.687577157571829e-4 6.771696522772595e-4 6.856873979332180e-4
      6.943122836401441e-4 7.030456570539791e-4 7.118888827820859e-4 7.208433425964764e-4
      7.299104356497157e-4 7.390915786935387e-4 7.483882063002265e-4 7.578017710867563e-4
      7.673337439417772e-4 7.769856142554433e-4 7.867588901521248e-4 7.966550987260668e-4
      8.066757862799921e-4 8.168225185667175e-4 8.270968810338088e-4 8.375004790713017e-4
      8.480349382625583e-4 8.587019046382592e-4 8.695030449336013e-4 8.804400468487334e-4
      8.915146193124535e-4 9.027284927492424e-4 9.140834193496389e-4 9.255811733440250e-4
      9.372235512798575e-4 9.490123723023716e-4 9.609494784388396e-4 9.730367348863805e-4
      9.852760303034056e-4 9.976692771047263e-4 1.010218411760367e-3 1.022925395098152e-3
      1.035792212610078e-3 1.048820874762560e-3 1.062013417310568e-3 1.075371901615711e-3
      1.088898414968345e-3 1.102595070913698e-3 1.116464009582127e-3 1.130507398023520e-3
      1.144727430545886e-3 1.159126329058243e-3 1.173706343417775e-3 1.188469751781391e-3
      1.203418860961683e-3 1.218556006787375e-3 1.233883554468299e-3 1.249403898964965e-3
      1.265119465362774e-3 1.281032709250953e-3 1.297146117106234e-3 1.313462206681377e-3
      1.329983527398574e-3 1.346712660747798e-3 1.363652220690173e-3 1.380804854066403e-3
      1.398173241010350e-3 1.415760095367811e-3 1.433568165120558e-3 1.451600232815724e-3
      1.469859116000569e-3 1.488347667662743e-3 1.507068776676055e-3 1.526025368251877e-3
      1.545220404396213e-3 1.564656884372509e-3 1.584337845170309e-3 1.604266361979777e-3
      1.624445548672209e-3 1.644878558286582e-3 1.665568583522218e-3 1.686518857237655e-3
      1.707732652955786e-3 1.729213285375349e-3 1.750964110888864e-3 1.772988528107069e-3
      1.795289978389965e-3 1.817871946384530e-3 1.840737960569206e-3 1.863891593805232e-3
      1.887336463894906e-3 1.911076234146881e-3 1.935114613948556e-3 1.959455359345680e-3
      1.984102273629247e-3 2.009059207929754e-3 2.034330061818964e-3 2.059918783919210e-3
      2.085829372520380e-3 2.112065876204660e-3 2.138632394479127e-3 2.165533078416314e-3
      2.192772131302815e-3 2.220353809296060e-3 2.248282422089354e-3 2.276562333585264e-3
      2.305197962577501e-3 2.334193783441351e-3 2.363554326832818e-3 2.393284180396541e-3
      2.423387989482626e-3 2.453870457872489e-3 2.484736348513832e-3 2.515990484264865e-3
      2.547637748647889e-3 2.579683086612347e-3 2.612131505307494e-3 2.644988074864770e-3
      2.678257929190011e-3 2.711946266765648e-3 2.746058351462964e-3 2.780599513364595e-3
      2.815575149597364e-3 2.850990725175588e-3 2.886851773855008e-3 2.923163898997436e-3
      2.959932774446308e-3 2.997164145413217e-3 3.034863829375623e-3 3.073037716985849e-3
      3.111691772991497e-3 3.150832037167461e-3 3.190464625259651e-3 3.230595729940589e-3
      3.271231621777024e-3 3.312378650209737e-3 3.354043244545633e-3 3.396231914962343e-3
      3.438951253525454e-3 3.482207935218524e-3 3.526008718986084e-3 3.570360448789706e-3
      3.615270054677405e-3 3.660744553866473e-3 3.706791051839920e-3 3.753416743456746e-3
      3.800628914076123e-3 3.848434940695765e-3 3.896842293104591e-3 3.945858535049898e-3
      3.995491325419223e-3 4.045748419437035e-3 4.096637669876523e-3 4.148167028286603e-3
      4.200344546234359e-3 4.253178376563137e-3 4.306676774666411e-3 4.360848099777729e-3
      4.415700816276852e-3 4.471243495012326e-3 4.527484814640715e-3 4.584433562982633e-3
      4.642098638395869e-3 4.700489051165777e-3 4.759613924913145e-3 4.819482498019795e-3
      4.880104125072073e-3 4.941488278322542e-3 5.003644549170037e-3 5.066582649658327e-3
      5.130312413993675e-3 5.194843800081410e-3 5.260186891081899e-3 5.326351896986054e-3
      5.393349156210656e-3 5.461189137213775e-3 5.529882440130457e-3 5.599439798429044e-3
      5.669872080588285e-3 5.741190291795556e-3 5.813405575666469e-3 5.886529215986043e-3
      5.960572638471852e-3 6.035547412559304e-3 6.111465253209378e-3 6.188338022739144e-3
      6.266177732675235e-3 6.344996545630694e-3 6.424806777205402e-3 6.505620897910415e-3
      6.587451535116520e-3 6.670311475027263e-3 6.754213664676833e-3 6.839171213953062e-3
      6.925197397645872e-3 7.012305657521484e-3 7.100509604422736e-3 7.189823020395778e-3
      7.280259860843563e-3 7.371834256706411e-3 7.464560516669977e-3 7.558453129401044e-3
      7.653526765811371e-3 7.749796281350080e-3 7.847276718324832e-3 7.945983308252225e-3
      8.045931474237765e-3 8.147136833385732e-3 8.249615199239392e-3 8.353382584251905e-3
      8.458455202288294e-3 8.564849471158904e-3 8.672582015184705e-3 8.781669667794887e-3
      8.892129474157105e-3 9.003978693840830e-3 9.117234803514213e-3 9.231915499674804e-3
      9.348038701414694e-3 9.465622553220419e-3 9.584685427808029e-3 9.705245928993939e-3
      9.827322894601728e-3 9.950935399405648e-3 1.007610275811106e-2 1.020284452837240e-2
      1.033118051384916e-2 1.046113076730016e-2 1.059271559371689e-2 1.072595555349618e-2
      1.086087146565282e-2 1.099748441107260e-2 1.113581573580616e-2 1.127588705440443e-2
      1.141772025329592e-2 1.156133749420652e-2 1.170676121762232e-2 1.185401414629596e-2
      1.200311928879714e-2 1.215409994310773e-2 1.230697970026213e-2 1.246178244803345e-2
      1.261853237466597e-2 1.277725397265463e-2 1.293797204257205e-2 1.310071169694361e-2
      1.326549836417144e-2 1.343235779250754e-2 1.360131605407706e-2 1.377239954895213e-2
      1.394563500927686e-2 1.412104950344443e-2 1.429867044032640e-2 1.447852557355556e-2
      1.466064300586236e-2 1.484505119346613e-2 1.503177895052139e-2 1.522085545362005e-2
      1.541231024635041e-2 1.560617324391336e-2 1.580247473779665e-2 1.600124540050813e-2
      1.620251629036823e-2 1.640631885636296e-2 1.661268494305792e-2 1.682164679557399e-2
      1.703323706462579e-2 1.724748881162333e-2 1.746443551383797e-2 1.768411106963331e-2
      1.790654980376188e-2 1.813178647272846e-2 1.835985627022081e-2 1.859079483260880e-2
      1.882463824451264e-2 1.906142304444121e-2 1.930118623050124e-2 1.954396526617837e-2
      1.978979808619084e-2 2.003872310241693e-2 2.029077920989686e-2 2.054600579291026e-2
      2.080444273112998e-2 2.106613040585341e-2 2.133110970631212e-2 2.159942203606091e-2
      2.187110931944722e-2 2.214621400816180e-2 2.242477908787199e-2 2.270684808493822e-2
      2.299246507321515e-2 2.328167468093831e-2 2.357452209769732e-2 2.387105308149682e-2
      2.417131396590634e-2 2.447535166729994e-2 2.478321369218706e-2 2.509494814463543e-2
      2.541060373378746e-2 2.573022978147117e-2 2.605387622990678e-2 2.638159364951035e-2
      2.671343324679543e-2 2.704944687237422e-2 2.738968702905935e-2 2.773420688006749e-2
      2.808306025732636e-2 2.843630166988586e-2 2.879398631243538e-2 2.915617007392805e-2
      2.952290954631342e-2 2.989426203338026e-2 3.027028555971016e-2 3.065103887974415e-2
      3.103658148696312e-2 3.142697362318381e-2 3.182227628797183e-2 3.222255124817277e-2
      3.262786104756352e-2 3.303826901662485e-2 3.345383928243689e-2 3.387463677869920e-2
      3.430072725587666e-2 3.473217729147323e-2 3.516905430043476e-2 3.561142654568269e-2
      3.605936314878042e-2 3.651293410073350e-2 3.697221027292596e-2 3.743726342819411e-2
      3.790816623203959e-2 3.838499226398362e-2 3.886781602906377e-2 3.935671296947565e-2
      3.985175947636086e-2 4.035303290174325e-2 4.086061157061546e-2 4.137457479317714e-2
      4.189500287722748e-2 4.242197714071343e-2 4.295557992443577e-2 4.349589460491513e-2
      4.404300560741961e-2 4.459699841915644e-2 4.515795960262954e-2 4.572597680916512e-2
      4.630113879260738e-2 4.688353542318638e-2 4.747325770156055e-2 4.807039777303569e-2
      4.867504894196281e-2 4.928730568631730e-2 4.990726367246108e-2 5.053501977009081e-2
      5.117067206737390e-2 5.181431988627503e-2 5.246606379807547e-2 5.312600563908740e-2
      5.379424852656614e-2 5.447089687482240e-2 5.515605641153721e-2 5.584983419428223e-2
      5.655233862724749e-2 5.726367947817988e-2 5.798396789553459e-2 5.871331642584224e-2
      5.945183903129463e-2 6.019965110755139e-2 6.095686950177083e-2 6.172361253086764e-2
      6.250000000000000e-2 6.328615322128966e-2 6.408219503277683e-2 6.488824981761409e-2
      6.570444352350155e-2 6.653090368236620e-2 6.736775943028949e-2 6.821514152768450e-2
      6.907318237972802e-2 6.994201605704884e-2 7.082177831667664e-2 7.171260662325452e-2
      7.261464017051772e-2 7.352801990304320e-2 7.445288853827243e-2 7.538939058881128e-2
      7.633767238501063e-2 7.729788209783033e-2 7.827016976199157e-2 7.925468729942002e-2
      8.025158854298384e-2 8.126102926053070e-2 8.228316717922636e-2 8.331816201020022e-2
      8.436617547350025e-2 8.542737132336226e-2 8.650191537379698e-2 8.758997552449836e-2
      8.869172178707863e-2 8.980732631163285e-2 9.093696341363756e-2 9.208080960118849e-2
      9.323904360257941e-2 9.441184639422959e-2 9.559940122896124e-2 9.680189366463331e-2
      9.801951159313557e-2 9.925244526974650e-2 1.005008873428615e-1 1.017650328840944e-1
      1.030450794187580e-1 1.043412269567277e-1 1.056536780236932e-1 1.069826376928041e-1
      1.083283136167123e-1 1.096909160600187e-1 1.110706579321274e-1 1.124677548205131e-1
      1.138824250244069e-1 1.153148895889063e-1 1.167653723395139e-1 1.182340999171106e-1
      1.197213018133685e-1 1.212272104066097e-1 1.227520609981155e-1 1.242960918488933e-1
      1.258595442169048e-1 1.274426623947635e-1 1.290456937479055e-1 1.306688887532411e-1
      1.323125010382922e-1 1.339767874208225e-1 1.356620079489652e-1 1.373684259418564e-1
      1.390963080307793e-1 1.408459242008255e-1 1.426175478330815e-1 1.444114557473440e-1
      1.462279282453745e-1 1.480672491546964e-1 1.499297058729436e-1 1.518155894127680e-1
      1.537251944473094e-1 1.556588193562395e-1 1.576167662723844e-1 1.595993411289329e-1
      1.616068537072404e-1 1.636396176852314e-1 1.656979506864130e-1 1.677821743295045e-1
      1.698926142786903e-1 1.720296002945067e-1 1.741934662853657e-1 1.763845503597312e-1
      1.786031948789478e-1 1.808497465107351e-1 1.831245562833566e-1 1.854279796404668e-1
      1.877603764966520e-1 1.901221112936666e-1 1.925135530573769e-1 1.949350754554247e-1
      1.973870568556105e-1 1.998698803850172e-1 2.023839339898727e-1 2.049296104961671e-1
      2.075073076710344e-1 2.101174282849019e-1 2.127603801744261e-1 2.154365763062173e-1
      2.181464348413651e-1 2.208903792007796e-1 2.236688381313488e-1 2.264822457729338e-1
      2.293310417262029e-1 2.322156711213190e-1 2.351365846874947e-1 2.380942388234164e-1
      2.410890956685608e-1 2.441216231754034e-1 2.471922951825361e-1 2.503015914887081e-1
      2.534499979277923e-1 2.566380064447007e-1 2.598661151722506e-1 2.631348285089975e-1
      2.664446571980514e-1 2.697961184068778e-1 2.731897358081098e-1 2.766260396613711e-1
      2.801055668961290e-1 2.836288611955942e-1 2.871964730816681e-1 2.908089600009668e-1
      2.944668864119215e-1 2.981708238729752e-1 3.019213511318927e-1 3.057190542161879e-1
      3.095645265246945e-1 3.134583689202852e-1 3.174011898237551e-1 3.213936053088932e-1
      3.254362391987407e-1 3.295297231630681e-1 3.336746968170737e-1 3.378718078213229e-1
      3.421217119829503e-1 3.464250733581265e-1 3.507825643558222e-1 3.551948658428717e-1
      3.596626672503582e-1 3.641866666813425e-1 3.687675710199386e-1 3.734060960417701e-1
      3.781029665258094e-1 3.828589163676241e-1 3.876746886940545e-1 3.925510359793229e-1
      3.974887201626143e-1 4.024885127671290e-1 4.075511950206320e-1 4.126775579775272e-1
      4.178684026424545e-1 4.231245400954545e-1 4.284467916186989e-1 4.338359888248148e-1
      4.392929737868313e-1 4.448185991697498e-1 4.504137283637791e-1 4.560792356192398e-1
      4.618160061831657e-1 4.676249364376304e-1 4.735069340398031e-1 4.794629180637767e-1
      4.854938191441736e-1 4.916005796215558e-1 4.977841536896737e-1 5.040455075445546e-1
      5.103856195354779e-1 5.168054803178421e-1 5.233060930079541e-1 5.298884733397738e-1
      5.365536498236185e-1 5.433026639068751e-1 5.501365701367257e-1 5.570564363249211e-1
      5.640633437146332e-1 5.711583871493955e-1 5.783426752441806e-1 5.856173305586210e-1
      5.929834897724079e-1 6.004423038629070e-1 6.079949382849930e-1 6.156425731531613e-1
      6.233864034259204e-1 6.312276390925033e-1 6.391675053619381e-1 6.472072428544809e-1
      6.553481077954731e-1 6.635913722116257e-1 6.719383241297722e-1 6.803902677781343e-1
      6.889485237901003e-1 6.976144294105852e-1 7.063893387049744e-1 7.152746227706951e-1
      7.242716699514626e-1 7.333818860542008e-1 7.426066945687122e-1 7.519475368900962e-1
      7.614058725439671e-1 7.709831794145167e-1 7.806809539754259e-1 7.905007115237014e-1
      8.004439864164400e-1 8.105123323105708e-1 8.207073224056268e-1 8.310305496895493e-1
      8.414836271876068e-1 8.520681882144228e-1 8.627858866291934e-1 8.736383970941029e-1
      8.846274153359881e-1 8.957546584113093e-1 9.070218649744328e-1 9.184307955493088e-1
      9.299832328045531e-1 9.416809818319869e-1 9.535258704286987e-1 9.655197493826266e-1
      9.776644927617607e-1 9.899619982069645e-1 1.002414187228480e0 1.015023005506179e0
      1.027790423193566e0 1.040718435225634e0 1.053809061630566e0 1.067064347845366e0
      1.080486365035479e0 1.094077210418393e0 1.107839007591353e0 1.121773906863166e0
      1.135884085590192e0 1.150171748516567e0 1.164639128118689e0 1.179288484954055e0
      1.194122108014479e0 1.209142315083739e0 1.224351453099751e0 1.239751898521271e0
      1.255346057699229e0 1.271136367252727e0 1.287125294449752e0 1.303315337592715e0
      1.319709026408789e0 1.336308922445209e0 1.353117619469505e0 1.370137743874779e0
      1.387371955090104e0 1.404822945996039e0 1.422493443345421e0 1.440386208189413e0
      1.458504036308920e0 1.476849758651453e0 1.495426241773447e0 1.514236388288186e0
      1.533283137319336e0 1.552569464960178e0 1.572098384738650e0 1.591872948088193e0
      1.611896244824566e0 1.632171403628625e0 1.652701592535175e0 1.673490019428010e0
      1.694539932541119e0 1.715854620966256e0 1.737437415166856e0 1.759291687498416e0
      1.781420852735457e0 1.803828368605065e0 1.826517736327184e0 1.849492501161686e0
      1.872756252962314e0 1.896312626737623e0 1.920165303218933e0 1.944318009435479e0
      1.968774519296748e0 1.993538654182156e0 2.018614283538170e0 2.044005325482886e0
      2.069715747418269e0 2.095749566650060e0 2.122110851015472e0 2.148803719518827e0
      2.175832342975128e0 2.203200944661784e0 2.230913800978494e0 2.258975242115433e0
      2.287389652729877e0 2.316161472631287e0 2.345295197475063e0 2.374795379464988e0
      2.404666628064509e0 2.434913610717001e0 2.465541053575035e0 2.496553742238871e0
      2.527956522504215e0 2.559754301119363e0 2.591952046551926e0 2.624554789765126e0
      2.657567625003924e0 2.690995710590998e0 2.724844269732719e0 2.759118591335330e0
      2.793824030831304e0 2.828966011016173e0 2.864550022895845e0 2.900581626544561e0
      2.937066451973709e0 2.974010200011481e0 3.011418643193676e0 3.049297626665654e0
      3.087653069095637e0 3.126490963599551e0 3.165817378677417e0 3.205638459161607e0
      3.245960427176968e0 3.286789583113028e0 3.328132306608481e0 3.369995057547973e0
      3.412384377071515e0 3.455306888596530e0 3.498769298852760e0 3.542778398930242e0
      3.587341065340390e0 3.632464261090499e0 3.678155036771716e0 3.724420531660687e0
      3.771267974835129e0 3.818704686303336e0 3.866738078147993e0 3.915375655684307e0
      3.964625018632709e0 4.014493862306372e0 4.064989978813563e0 4.116121258275231e0
      4.167895690057826e0 4.220321364021634e0 4.273406471784889e0 4.327159308003665e0
      4.381588271667991e0 4.436701867414183e0 4.492508706853692e0 4.549017509918734e0
      4.606237106224740e0 4.664176436450057e0 4.722844553732918e0 4.782250625085993e0
      4.842403932828811e0 4.903313876038072e0 4.964989972016333e0 5.027441857779082e0
      5.090679291560509e0 5.154712154338320e0 5.219550451377580e0 5.285204313794125e0
      5.351684000137541e0 5.418999897994056e0 5.487162525609683e0 5.556182533533645e0
      5.626070706282613e0 5.696837964025778e0 5.768495364291118e0 5.841054103693234e0
      5.914525519682759e0 5.988921092317930e0 6.064252446058340e0 6.140531351581254e0
      6.217769727620872e0 6.295979642830570e0 6.375173317668731e0 6.455363126308178e0
      6.536561598569639e0 6.618781421879627e0 6.702035443252785e0 6.786336671299350e0
      6.871698278257726e0 6.958133602052647e0 7.045656148379333e0 7.134279592813690e0
      7.224017782949229e0 7.314884740560744e0 7.406894663795208e0 7.500061929390347e0
      7.594401094920936e0 7.689926901073534e0 7.786654273949716e0 7.884598327398261e0
      7.983774365376815e0 8.084197884343061e0 8.185884575676162e0 8.288850328128541e0
      8.393111230308470e0 8.498683573194070e0 8.605583852678670e0 8.713828772148448e0
      8.823435245092313e0 8.934420397744626e0 9.046801571761321e0 9.160596326929449e0
      9.275822443911037e0 9.392497927021312e0 9.510641007041851e0 9.630270144069307e0
      9.751404030399694e0 9.874061593449216e0 9.998261998711667e0 1.012402465275302e1
      1.025136920624387e1 1.038031555702976e1 1.051088385324034e1 1.064309449643757e1
      1.077696814480340e1 1.091252571636778e1 1.104978839227703e1 1.118877762010354e1
      1.132951511719696e1 1.147202287407750e1 1.161632315787215e1 1.176243851579378e1
      1.191039177866438e1 1.206020606448229e1 1.221190478203444e1 1.236551163455411e1
      1.252105062342449e1 1.267854605192906e1 1.283802252904896e1 1.299950497330816e1
      1.316301861666717e1 1.332858900846538e1 1.349624201941338e1 1.366600384563526e1
      1.383790101276170e1 1.401196038007483e1 1.418820914470488e1 1.436667484587993e1
      1.454738536922889e1 1.473036895113866e1 1.491565418316624e1 1.510327001650605e1
      1.529324576651377e1 1.548561111728690e1 1.568039612630279e1 1.587763122911546e1
      1.607734724411094e1 1.627957537732293e1 1.648434722730870e1 1.669169479008638e1
      1.690165046413456e1 1.711424705545441e1 1.732951778269587e1 1.754749628234810e1
      1.776821661399506e1 1.799171326563771e1 1.821802115908251e1 1.844717565539827e1
      1.867921256044129e1 1.891416813044999e1 1.915207907771029e1 1.939298257629165e1
      1.963691626785589e1 1.988391826753863e1 2.013402716990478e1 2.038728205497927e1
      2.064372249435306e1 2.090338855736657e1 2.116632081737047e1 2.143256035806528e1
      2.170214877992094e1 2.197512820667680e1 2.225154129192370e1 2.253143122576861e1
      2.281484174158306e1 2.310181712283683e1 2.339240221001701e1 2.368664240763472e1
      2.398458369131951e1 2.428627261500305e1 2.459175631819353e1 2.490108253334100e1
      2.521429959329595e1 2.553145643886129e1 2.585260262643930e1 2.617778833577527e1
      2.650706437779779e1 2.684048220255837e1 2.717809390727054e1 2.751995224444993e1
      2.786611063015735e1 2.821662315234472e1 2.857154457930681e1 2.893093036823872e1
      2.929483667390107e1 2.966332035739456e1 3.003643899504434e1 3.041425088739670e1
      3.079681506832855e1 3.118419131427138e1 3.157644015355185e1 3.197362287584902e1
      3.237580154177138e1 3.278303899255378e1 3.319539885987632e1 3.361294557580734e1
      3.403574438287059e1 3.446386134423992e1 3.489736335406163e1 3.533631814790658e1
      3.578079431335449e1 3.623086130071040e1 3.668658943385680e1 3.714804992124177e1
      3.761531486700514e1 3.808845728224551e1 3.856755109642773e1 3.905267116893506e1
      3.954389330076588e1 4.004129424637756e1 4.054495172567994e1 4.105494443617874e1
      4.157135206527261e1 4.209425530270434e1 4.262373585316847e1 4.315987644907840e1
      4.370276086349286e1 4.425247392320621e1 4.480910152200249e1 4.537273063407634e1
      4.594344932762337e1 4.652134677860044e1 4.710651328466009e1 4.769904027925948e1
      4.829902034594688e1 4.890654723282854e1 4.952171586721638e1 5.014462237046119e1
      5.077536407297150e1 5.141403952942141e1 5.206074853415055e1 5.271559213675648e1
      5.337867265788447e1 5.405009370521512e1 5.472996018965287e1 5.541837834171933e1
      5.611545572815115e1 5.682130126870828e1 5.753602525319256e1 5.825973935868053e1
      5.899255666697374e1 5.973459168226736e1 6.048596034904229e1 6.124678007018152e1
      6.201716972531415e1 6.279724968939137e1 6.358714185149445e1 6.438696963388087e1
      6.519685801126901e1 6.601693353036532e1 6.684732432963838e1 6.768816015933976e1
      6.853957240177866e1 6.940169409185032e1 7.027465993782254e1 7.115860634238508e1
      7.205367142396179e1 7.295999503829283e1 7.387771880028700e1 7.480698610614898e1
      7.574794215578615e1 7.670073397549543e1 7.766551044093724e1 7.864242230039729e1
      7.963162219834088e1 8.063326469926491e1 8.164750631184768e1 8.267450551340485e1
      8.371442277465119e1 8.476742058477427e1 8.583366347682453e1 8.691331805342282e1
      8.800655301279347e1 8.911353917512328e1 9.023444950925191e1 9.136945915969996e1
      9.251874547403416e1 9.368248803057950e1 9.486086866647831e1 9.605407150610203e1
      9.726228298982226e1 9.848569190314114e1 9.972448940619058e1
      </PP_R>
    <PP_RAB>
      7.124077855894657e-7 7.213687723976737e-7 7.304424745442049e-7 7.396303098134796e-7
      7.489337138234532e-7 7.583541402499288e-7 7.678930610537020e-7 7.775519667105558e-7
      7.873323664441489e-7 7.972357884618395e-7 8.072637801934665e-7 8.174179085331396e-7
      8.276997600840705e-7 8.381109414064818e-7 8.486530792686388e-7 8.593278209010297e-7
      8.701368342537526e-7 8.810818082571348e-7 8.921644530856309e-7 9.033865004250451e-7
      9.147497037431050e-7 9.262558385634476e-7 9.379067027430477e-7 9.497041167531364e-7
      9.616499239636569e-7 9.737459909312886e-7 9.859942076911052e-7 9.983964880518940e-7
      1.010954769895194e-6 1.023671015478094e-6 1.036547211739837e-6 1.049585370612287e-6
      1.062787529334292e-6 1.076155750770013e-6 1.089692123731249e-6 1.103398763303814e-6
      1.117277811178027e-6 1.131331435983356e-6 1.145561833627268e-6 1.159971227638349e-6
      1.174561869513728e-6 1.189336039070884e-6 1.204296044803868e-6 1.219444224244010e-6
      1.234782944325170e-6 1.250314601753566e-6 1.266041623382271e-6 1.281966466590411e-6
      1.298091619667136e-6 1.314419602200423e-6 1.330952965470761e-6 1.347694292849799e-6
      1.364646200204000e-6 1.381811336303376e-6 1.399192383235367e-6 1.416792056823918e-6
      1.434613107053834e-6 1.452658318500470e-6 1.470930510764826e-6 1.489432538914122e-6
      1.508167293927898e-6 1.527137703149740e-6 1.546346730744685e-6 1.565797378162375e-6
      1.585492684606042e-6 1.605435727507390e-6 1.625629623007445e-6 1.646077526443464e-6
      1.666782632841960e-6 1.687748177417934e-6 1.708977436080379e-6 1.730473725944154e-6
      1.752240405848284e-6 1.774280876880787e-6 1.796598582910107e-6 1.819197011123214e-6
      1.842079692570495e-6 1.865250202717479e-6 1.888712162003518e-6 1.912469236407487e-6
      1.936525138020593e-6 1.960883625626405e-6 1.985548505288171e-6 2.010523630943516e-6
      2.035812905006639e-6 2.061420278978064e-6 2.087349754062071e-6 2.113605381791896e-6
      2.140191264662788e-6 2.167111556773039e-6 2.194370464473057e-6 2.221972247022630e-6