<?xml version="1.0" encoding="UTF-8"?>
<UPF version="2.0.1">
  <PP_INFO><![CDATA[
Generated using "atomic" code by A. Dal Corso  v.6.6
Author: ADC
Generation date:  9Nov2022
Pseudopotential type: PAW
Element:  P
Functional:  SLA  PZ   NOGX NOGC
    Suggested minimum cutoff for wavefunctions:  35. Ry
    Suggested minimum cutoff for charge density: 139. Ry
    The Pseudo was generated with a Scalar-Relativistic Calculation
    L component and cutoff radius for Local Potential:  2   1.7000
    Valence configuration:
    nl pn  l   occ       Rcut    Rcut US       E pseu
    3S  1  0  2.00      1.500      1.800    -1.030535
    3P  2  1  3.00      1.500      1.800    -0.411790
    Generation configuration:
    3S  1  0  2.00      1.500      1.800    -1.030531
    3S  1  0  0.00      1.500      1.800     6.000000
    3P  2  1  3.00      1.500      1.800    -0.411788
    3P  2  1  0.00      1.500      1.800     3.000000
    3D  3  2  0.00      1.700      1.700     1.500000
    Pseudization used: troullier-martins
]]>
    <PP_INPUTFILE><![CDATA[
 &input
   title='P',
   zed=15.,
   rel=1,
   config='[Ne] 3s2 3p3 3d-1',
   iswitch=3,
   dft='LDA'
 /
 &inputp
   lpaw=.true.,
   pseudotype=3,
   file_pseudopw='P.pz-nl-kjpaw_psl.1.0.0.UPF',
   author='ADC',
   lloc=2,
   which_augfun='PSQ',
   rmatch_augfun_nc=.true.,
   nlcc=.true.,
   new_core_ps=.true.,
   rcore=1.5,
   tm=.true.
 /
5
3S  1  0  2.00  0.00  1.50  1.80  0.0
3S  1  0  0.00  6.00  1.50  1.80  0.0
3P  2  1  3.00  0.00  1.50  1.80  0.0
3P  2  1  0.00  3.00  1.50  1.80  0.0
3D  3  2  0.00  1.50  1.70  1.70  0.0
]]></PP_INPUTFILE>
  </PP_INFO>
  <!--
 END OF HUMAN READABLE SECTION 
-->
  <PP_HEADER generated="Generated using &quot;atomic&quot; code by A. Dal Corso  v.6.6" author="ADC" date=" 9Nov2022" comment="" element=" P" pseudo_type="PAW" relativistic="scalar" is_ultrasoft="true" is_paw="true" is_coulomb="false" has_so="false" has_wfc="true" has_gipaw="false" paw_as_gipaw="false" core_correction="true" functional=" SLA  PZ   NOGX NOGC" z_valence="5.000000000000e0" total_psenergy="-5.282146584731e1" wfc_cutoff="3.478482429314e1" rho_cutoff="1.391392971726e2" l_max="1" l_max_rho="2" l_local="2" mesh_size="1147" number_of_wfc="2" number_of_proj="4"/>
  <PP_MESH dx="1.250000000000e-2" mesh="1147" xmin="-7.000000000000e0" rmax="1.000000000000e2" zmesh="1.500000000000e1">
    <PP_R>
      6.079213103696775e-5 6.155680191126813e-5 6.233109116110547e-5 6.311511977075027e-5
      6.390901024626800e-5 6.471288663466058e-5 6.552687454324923e-5 6.635110115930076e-5
      6.718569526990069e-5 6.803078728207695e-5 6.888650924317580e-5 6.975299486149456e-5
      7.063037952717401e-5 7.151880033335312e-5 7.241839609759053e-5 7.332930738355456e-5
      7.425167652298690e-5 7.518564763794215e-5 7.613136666330717e-5 7.708898136960385e-5
      7.805864138607831e-5 7.904049822408085e-5 8.003470530074006e-5 8.104141796293430e-5
      8.206079351156539e-5 8.309299122613663e-5 8.413817238964096e-5 8.519650031376163e-5
      8.626814036438986e-5 8.735325998746401e-5 8.845202873513275e-5 8.956461829224846e-5
      9.069120250319294e-5 9.183195739904114e-5 9.298706122506658e-5 9.415669446859210e-5
      9.534103988719163e-5 9.654028253724636e-5 9.775460980286020e-5 9.898421142513911e-5
      1.002292795318382e-4 1.014900086673821e-4 1.027665958232634e-4 1.040592404688222e-4
      1.053681445824145e-4 1.066935126829709e-4 1.080355518619538e-4 1.093944718157151e-4
      1.107704848782622e-4 1.121638060544361e-4 1.135746530535049e-4 1.150032463231828e-4
      1.164498090840747e-4 1.179145673645547e-4 1.193977500360847e-4 1.208995888489744e-4
      1.224203184685938e-4 1.239601765120401e-4 1.255194035852652e-4 1.270982433206718e-4
      1.286969424151806e-4 1.303157506687778e-4 1.319549210235464e-4 1.336147096031893e-4
      1.352953757530489e-4 1.369971820806306e-4 1.387203944966353e-4 1.404652822565089e-4
      1.422321180025139e-4 1.440211778063303e-4 1.458327412121923e-4 1.476670912805678e-4
      1.495245146323869e-4 1.514053014938271e-4 1.533097457416624e-4 1.552381449491809e-4
      1.571908004326822e-4 1.591680172985582e-4 1.611701044909669e-4 1.631973748401055e-4
      1.652501451110906e-4 1.673287360534532e-4 1.694334724512572e-4 1.715646831738467e-4
      1.737227012272332e-4 1.759078638061281e-4 1.781205123466300e-4 1.803609925795751e-4
      1.826296545845579e-4 1.849268528446326e-4 1.872529463017008e-4 1.896082984125979e-4
      1.919932772058829e-4 1.944082553393445e-4 1.968536101582298e-4 1.993297237542040e-4
      2.018369830250544e-4 2.043757797351428e-4 2.069465105766206e-4 2.095495772314120e-4
      2.121853864339778e-4 2.148543500348684e-4 2.175568850650766e-4 2.202934138011988e-4
      2.230643638314181e-4 2.258701681223141e-4 2.287112650865156e-4 2.315880986512036e-4
      2.345011183274752e-4 2.374507792805820e-4 2.404375424010487e-4 2.434618743766896e-4
      2.465242477655288e-4 2.496251410696387e-4 2.527650388099072e-4 2.559444316017442e-4
      2.591638162317420e-4 2.624236957352989e-4 2.657245794752194e-4 2.690669832213039e-4
      2.724514292309378e-4 2.758784463306958e-4 2.793485699989720e-4 2.828623424496493e-4
      2.864203127168227e-4 2.900230367405846e-4 2.936710774538937e-4 2.973650048705334e-4
      3.011053961741777e-4 3.048928358085782e-4 3.087279155688830e-4 3.126112346941074e-4
      3.165433999607652e-4 3.205250257776790e-4 3.245567342819843e-4 3.286391554363368e-4
      3.327729271273478e-4 3.369586952652543e-4 3.411971138848434e-4 3.454888452476483e-4
      3.498345599454256e-4 3.542349370049384e-4 3.586906639940547e-4 3.632024371291817e-4
      3.677709613840514e-4 3.723969505998733e-4 3.770811275968739e-4 3.818242242872389e-4
      3.866269817894761e-4 3.914901505442167e-4 3.964144904314729e-4 4.014007708893707e-4
      4.064497710343759e-4 4.115622797830334e-4 4.167390959752374e-4 4.219810284990498e-4
      4.272888964170923e-4 4.326635290945258e-4 4.381057663286408e-4 4.436164584800783e-4
      4.491964666056978e-4 4.548466625931218e-4 4.605679292969688e-4 4.663611606768008e-4
      4.722272619368084e-4 4.781671496672465e-4 4.841817519876595e-4 4.902720086918958e-4
      4.964388713949559e-4 5.026833036816850e-4 5.090062812573308e-4 5.154087921000048e-4
      5.218918366150516e-4 5.284564277913662e-4 5.351035913596773e-4 5.418343659528141e-4
      5.486498032680021e-4 5.555509682311873e-4 5.625389391634354e-4 5.696148079494233e-4
      5.767796802080422e-4 5.840346754651619e-4 5.913809273285505e-4 5.988195836650077e-4
      6.063518067797215e-4 6.139787735978761e-4 6.217016758485551e-4 6.295217202509474e-4
      6.374401287029002e-4 6.454581384718462e-4 6.535770023881218e-4 6.617979890407342e-4
      6.701223829755723e-4 6.785514848961245e-4 6.870866118667164e-4 6.957290975183003e-4
      7.044802922568437e-4 7.133415634743285e-4 7.223142957624101e-4 7.313998911287658e-4
      7.405997692161536e-4 7.499153675242443e-4 7.593481416342252e-4 7.688995654362413e-4
      7.785711313596968e-4 7.883643506064411e-4 7.982807533869083e-4 8.083218891592068e-4
      8.184893268712290e-4 8.287846552058060e-4 8.392094828289331e-4 8.497654386411380e-4
      8.604541720319915e-4 8.712773531378321e-4 8.822366731027294e-4 8.933338443427219e-4
      9.045706008133955e-4 9.159486982808096e-4 9.274699145958412e-4 9.391360499719823e-4
      9.509489272666171e-4 9.629103922658587e-4 9.750223139729480e-4 9.872865849002933e-4
      9.997051213651812e-4 1.012279863789196e-3 1.025012777001429e-3 1.037905850545473e-3
      1.050961098990299e-3 1.064180562245042e-3 1.077566305877725e-3 1.091120421438029e-3
      1.104845026784083e-3 1.118742266413397e-3 1.132814311797939e-3 1.147063361723426e-3
      1.161491642632901e-3 1.176101408974611e-3 1.190894943554269e-3 1.205874557891754e-3
      1.221042592582279e-3 1.236401417662125e-3 1.251953432978961e-3 1.267701068566817e-3
      1.283646785025796e-3 1.299793073906533e-3 1.316142458099519e-3 1.332697492229295e-3
      1.349460763053626e-3 1.366434889867684e-3 1.383622524913316e-3 1.401026353793469e-3
      1.418649095891812e-3 1.436493504797651e-3 1.454562368736185e-3 1.472858511004163e-3
      1.491384790411040e-3 1.510144101725665e-3 1.529139376128595e-3 1.548373581670105e-3
      1.567849723733941e-3 1.587570845506925e-3 1.607540028454458e-3 1.627760392802002e-3
      1.648235098022627e-3 1.668967343330676e-3 1.689960368181663e-3 1.711217452778429e-3
      1.732741918583690e-3 1.754537128839021e-3 1.776606489090366e-3 1.798953447720166e-3
      1.821581496486171e-3 1.844494171067038e-3 1.867695051614788e-3 1.891187763314207e-3
      1.914975976949296e-3 1.939063409476832e-3 1.963453824607153e-3 1.988151033392247e-3
      2.013158894821233e-3 2.038481316423340e-3 2.064122254878459e-3 2.090085716635393e-3
      2.116375758537863e-3 2.142996488458405e-3 2.169952065940229e-3 2.197246702847158e-3
      2.224884664021738e-3 2.252870267951637e-3 2.281207887444403e-3 2.309901950310735e-3
      2.338956940056336e-3 2.368377396582464e-3 2.398167916895311e-3 2.428333155824282e-3
      2.458877826749334e-3 2.489806702337441e-3 2.521124615288339e-3 2.552836459089644e-3
      2.584947188781467e-3 2.617461821730655e-3 2.650385438414755e-3 2.683723183215857e-3
      2.717480265224415e-3 2.751661959053170e-3 2.786273605661327e-3 2.821320613189088e-3
      2.856808457802679e-3 2.892742684550025e-3 2.929128908227161e-3 2.965972814255568e-3
      3.003280159570521e-3 3.041056773520627e-3 3.079308558778675e-3 3.118041492263932e-3
      3.157261626076062e-3 3.196975088440765e-3 3.237188084667331e-3 3.277906898118239e-3
      3.319137891190929e-3 3.360887506311958e-3 3.403162266943627e-3 3.445968778603294e-3
      3.489313729895493e-3 3.533203893557053e-3 3.577646127515343e-3 3.622647375959833e-3
      3.668214670427150e-3 3.714355130899760e-3 3.761075966918490e-3 3.808384478709020e-3
      3.856288058322566e-3 3.904794190790905e-3 3.953910455295914e-3 4.003644526353863e-3
      4.054004175014531e-3 4.104997270075483e-3 4.156631779311565e-3 4.208915770719893e-3
      4.261857413780504e-3 4.315464980732837e-3 4.369746847868291e-3 4.424711496839043e-3
      4.480367515983317e-3 4.536723601667346e-3 4.593788559644172e-3 4.651571306429577e-3
      4.710080870695309e-3 4.769326394679815e-3 4.829317135616764e-3 4.890062467181475e-3
      4.951571880955593e-3 5.013854987910163e-3 5.076921519907355e-3 5.140781331221113e-3
      5.205444400076877e-3 5.270920830210713e-3 5.337220852448040e-3 5.404354826302216e-3
      5.472333241593254e-3 5.541166720086838e-3 5.610866017154027e-3 5.681442023451791e-3
      5.752905766624700e-3 5.825268413028026e-3 5.898541269472489e-3 5.972735784990981e-3
      6.047863552627504e-3 6.123936311248592e-3 6.200965947377567e-3 6.278964497051778e-3
      6.357944147703311e-3 6.437917240063258e-3 6.518896270090003e-3 6.600893890921753e-3
      6.683922914853582e-3 6.767996315339406e-3 6.853127229019096e-3 6.939328957771109e-3
      7.026614970790956e-3 7.114998906695746e-3 7.204494575655287e-3 7.295115961549932e-3
      7.386877224155598e-3 7.479792701356248e-3 7.573876911384252e-3 7.669144555088828e-3
      7.765610518233135e-3 7.863289873820172e-3 7.962197884447974e-3 8.062350004694446e-3
      8.163761883532128e-3 8.266449366773420e-3 8.370428499546488e-3 8.475715528802374e-3
      8.582326905853616e-3 8.690279288944780e-3 8.799589545855351e-3 8.910274756535365e-3
      9.022352215774180e-3 9.135839435902831e-3 9.250754149530353e-3 9.367114312314545e-3
      9.484938105767579e-3 9.604243940096884e-3 9.725050457081828e-3 9.847376532986457e-3
      9.971241281509007e-3 1.009666405676845e-2 1.022366445632857e-2 1.035226232426020e-2
      1.048247775424185e-2 1.061433109269936e-2 1.074784294198512e-2 1.088303416359723e-2
      1.101992588143910e-2 1.115853948512017e-2 1.129889663329801e-2 1.144101925706259e-2
      1.158492956336301e-2 1.173065003847743e-2 1.187820345152657e-2 1.202761285803139e-2
      1.217890160351565e-2 1.233209332715362e-2 1.248721196546380e-2 1.264428175604902e-2
      1.280332724138361e-2 1.296437327264824e-2 1.312744501361294e-2 1.329256794456901e-2
      1.345976786631037e-2 1.362907090416494e-2 1.380050351207685e-2 1.397409247673985e-2
      1.414986492178287e-2 1.432784831200804e-2 1.450807045768220e-2 1.469055951888226e-2
      1.487534400989532e-2 1.506245280367406e-2 1.525191513634816e-2 1.544376061179259e-2
      1.563801920625319e-2 1.583472127303054e-2 1.603389754722281e-2 1.623557915052805e-2
      1.643979759610711e-2 1.664658479350758e-2 1.685597305364976e-2 1.706799509387534e-2
      1.728268404305944e-2 1.750007344678716e-2 1.772019727259512e-2 1.794308991527893e-2
      1.816878620226751e-2 1.839732139906488e-2 1.862873121476050e-2 1.886305180760887e-2
      1.910031979067934e-2 1.934057223757702e-2 1.958384668823553e-2 1.983018115478271e-2
      2.007961412748016e-2 2.033218458073728e-2 2.058793197920133e-2 2.084689628392359e-2
      2.110911795860356e-2 2.137463797591139e-2 2.164349782388998e-2 2.191573951243761e-2
      2.219140557987198e-2 2.247053909957696e-2 2.275318368673293e-2 2.303938350513163e-2
      2.332918327407703e-2 2.362262827537259e-2 2.391976436039678e-2 2.422063795726743e-2
      2.452529607809616e-2 2.483378632633420e-2 2.514615690421047e-2 2.546245662026327e-2
      2.578273489696676e-2 2.610704177845327e-2 2.643542793833286e-2 2.676794468761112e-2
      2.710464398270662e-2 2.744557843356925e-2 2.779080131190056e-2 2.814036655947771e-2
      2.849432879658179e-2 2.885274333053250e-2 2.921566616432997e-2 2.958315400540533e-2
      2.995526427448144e-2 3.033205511454491e-2 3.071358539993107e-2 3.109991474552325e-2
      3.149110351606765e-2 3.188721283560561e-2 3.228830459702418e-2 3.269444147172709e-2
      3.310568691942732e-2 3.352210519806273e-2 3.394376137383662e-2 3.437072133138429e-2
      3.480305178406776e-2 3.524082028439985e-2 3.568409523459936e-2 3.613294589727914e-2
      3.658744240626844e-2 3.704765577757144e-2 3.751365792046375e-2 3.798552164872820e-2
      3.846332069203245e-2 3.894712970744907e-2 3.943702429112103e-2 3.993308099007372e-2
      4.043537731417556e-2 4.094399174824919e-2 4.145900376433469e-2 4.198049383410735e-2
      4.250854344145159e-2 4.304323509519280e-2 4.358465234198983e-2 4.413287977938895e-2
      4.468800306904265e-2 4.525010895009432e-2 4.581928525273148e-2 4.639562091190948e-2
      4.697920598124758e-2 4.757013164710020e-2 4.816849024280485e-2 4.877437526310946e-2
      4.938788137878120e-2 5.000910445139882e-2 5.063814154833127e-2 5.127509095790473e-2
      5.192005220476032e-2 5.257312606540512e-2 5.323441458395849e-2 5.390402108809687e-2
      5.458205020519883e-2 5.526860787869335e-2 5.596380138461383e-2 5.666773934835990e-2
      5.738053176167055e-2 5.810228999981057e-2 5.883312683897302e-2 5.957315647390105e-2
      6.032249453573066e-2 6.108125811005854e-2 6.184956575523691e-2 6.262753752089839e-2
      6.341529496671427e-2 6.421296118138814e-2 6.502066080188889e-2 6.583852003292547e-2
      6.666666666666666e-2 6.750523010270898e-2 6.835434136829528e-2 6.921413313878837e-2
      7.008473975840166e-2 7.096629726119063e-2 7.185894339230878e-2 7.276281762953013e-2
      7.367806120504321e-2 7.460481712751875e-2 7.554323020445509e-2 7.649344706480483e-2
      7.745561618188557e-2 7.842988789657941e-2 7.941641444082394e-2 8.041534996139871e-2
      8.142685054401134e-2 8.245107423768568e-2 8.348818107945768e-2 8.453833311938135e-2
      8.560169444584943e-2 8.667843121123276e-2 8.776871165784145e-2 8.887270614421357e-2
      8.999058717173360e-2 9.112252941158642e-2 9.226870973205010e-2 9.342930722613158e-2
      9.460450323955055e-2 9.579448139907502e-2 9.699942764121340e-2 9.821953024126772e-2
      9.945497984275137e-2 1.007059694871782e-1 1.019726946442253e-1 1.032553532422755e-1
      1.045541456993446e-1 1.058692749543963e-1 1.072009464990523e-1 1.085493684097007e-1
      1.099147513800085e-1 1.112973087538429e-1 1.126972565586061e-1 1.141148135389910e-1
      1.155502011911598e-1 1.170036437973532e-1 1.184753684609359e-1 1.199656051418806e-1
      1.214745866927007e-1 1.230025488948334e-1 1.245497304954815e-1 1.261163732449180e-1
      1.277027219342598e-1 1.293090244337170e-1 1.309355317313232e-1 1.325824979721528e-1
      1.342501804980318e-1 1.359388398877477e-1 1.376487399977658e-1 1.393801480034571e-1
      1.411333344408450e-1 1.429085732488773e-1 1.447061418122295e-1 1.465263210046469e-1
      1.483693952328313e-1 1.502356524808806e-1 1.521253843552870e-1 1.540388861305003e-1
      1.559764567950661e-1 1.579383990983428e-1 1.599250195978065e-1 1.619366287069526e-1
      1.639735407437967e-1 1.660360739799888e-1 1.681245506905433e-1 1.702392972041951e-1
      1.723806439543898e-1 1.745489255309134e-1 1.767444807321739e-1 1.789676526181382e-1
      1.812187885639363e-1 1.834982403141405e-1 1.858063640377234e-1 1.881435203837133e-1
      1.905100745375444e-1 1.929063962781174e-1 1.953328600355803e-1 1.977898449498312e-1
      2.002777349297622e-1 2.027969187132444e-1 2.053477899278687e-1 2.079307471524530e-1
      2.105461939793179e-1 2.131945390773517e-1 2.158761962558642e-1 2.185915845292449e-1
      2.213411281824368e-1 2.241252568372287e-1 2.269444055193878e-1 2.297990147266318e-1
      2.326895304974561e-1 2.356164044808316e-1 2.385800940067720e-1 2.415810621577960e-1
      2.446197778412831e-1 2.476967158627402e-1 2.508123569999943e-1 2.539671880783108e-1
      2.571617020464649e-1 2.603963980537636e-1 2.636717815280385e-1 2.669883642546219e-1
      2.703466644563118e-1 2.737472068743474e-1 2.771905228504007e-1 2.806771504095973e-1
      2.842076343445881e-1 2.877825263006697e-1 2.914023848619838e-1 2.950677756387959e-1
      2.987792713558710e-1 3.025374519419672e-1 3.063429046204460e-1 3.101962240010312e-1
      3.140980121727163e-1 3.180488787978402e-1 3.220494412073522e-1 3.261003244972671e-1
      3.302021616263409e-1 3.343555935149709e-1 3.385612691453388e-1 3.428198456628194e-1
      3.471319884786567e-1 3.514983713739393e-1 3.559196766048787e-1 3.603965950094111e-1
      3.649298261151470e-1 3.695200782486683e-1 3.741680686462103e-1 3.788745235657299e-1
      3.836401784003820e-1 3.884657777934320e-1 3.933520757546012e-1 3.982998357778881e-1
      4.033098309608633e-1 4.083828441254658e-1 4.135196679403247e-1 4.187211050446111e-1
      4.239879681734553e-1 4.293210802849376e-1 4.347212746886742e-1 4.401893951760290e-1
      4.457262961519515e-1 4.513328427684849e-1 4.570099110599456e-1 4.627583880798023e-1
      4.685791720392867e-1 4.744731724477331e-1 4.804413102546977e-1 4.864845179938558e-1
      4.926037399287100e-1 4.987999322001391e-1 5.050740629757899e-1 5.114271126013619e-1
      5.178600737537852e-1 5.243739515963261e-1 5.309697639356520e-1 5.376485413808584e-1
      5.444113275045098e-1 5.512591790056983e-1 5.581931658751510e-1 5.652143715624255e-1
      5.723238931451931e-1 5.795228415006668e-1 5.868123414791741e-1 5.941935320799158e-1
      6.016675666289420e-1 6.092356129593552e-1 6.168988535937926e-1 6.246584859291957e-1
      6.325157224239017e-1 6.404717907871008e-1 6.485279341706591e-1 6.566854113633720e-1
      6.649454969876485e-1 6.733094816986702e-1 6.817786723860674e-1 6.903543923781131e-1
      6.990379816485047e-1 7.078307970257340e-1 7.167342124050903e-1 7.257496189633432e-1
      7.348784253761070e-1 7.441220580379576e-1 7.534819612853060e-1 7.629595976220748e-1
      7.725564479482268e-1 7.822740117911476e-1 7.921138075399597e-1 8.020773726827692e-1
      8.121662640468982e-1 8.223820580421512e-1 8.327263509071209e-1 8.432007589586147e-1
      8.538069188442028e-1 8.645464877979421e-1 8.754211438993352e-1 8.864325863355193e-1
      8.975825356667805e-1 9.088727340953843e-1 9.203049457378063e-1 9.318809569003765e-1
      9.436025763583872e-1 9.554716356387299e-1 9.674899893060617e-1 9.796595152525962e-1
      9.919821149915233e-1 1.004459713954119e0 1.017094261790612e0 1.029887732674802e0
      1.042842125612545e0 1.055959464754096e0 1.069241799710378e0 1.082691205873257e0
      1.096309784739804e0 1.110099664240676e0 1.124062999072603e0 1.138201971035057e0
      1.152518789371178e0 1.167015691112953e0 1.181694941430776e0 1.196558833987377e0
      1.211609691296204e0 1.226849865084338e0 1.242281736659934e0 1.257907717284326e0
      1.273730248548778e0 1.289751802755988e0 1.305974883306401e0 1.322402025089356e0
      1.339035794879178e0 1.355878791736242e0 1.372933647413069e0 1.390203026765562e0
      1.407689628169375e0 1.425396183941556e0 1.443325460767472e0 1.461480260133098e0
      1.479863418762778e0 1.498477809062442e0 1.517326339568449e0 1.536411955402040e0
      1.555737638729515e0 1.575306409228217e0 1.595121324558343e0 1.615185480840732e0
      1.635502013140625e0 1.656074095957523e0 1.676904943721226e0 1.697997811294073e0
      1.719355994479538e0 1.740982830537200e0 1.762881698704187e0 1.785056020723211e0
      1.807509261377194e0 1.830244929030673e0 1.853266576177979e0 1.876577799998310e0
      1.900182242917821e0 1.924083593178736e0 1.948285585415663e0 1.972792001239132e0
      1.997606669826468e0 2.022733468520131e0 2.048176323433529e0 2.073939210064511e0
      2.100026153916531e0 2.126441231127633e0 2.153188569107381e0 2.180272347181745e0
      2.207696797246154e0 2.235466204426731e0 2.263584907749837e0 2.292057300820082e0
      2.320887832506803e0 2.350081007639236e0 2.379641387710394e0 2.409573591589796e0
      2.439882296245202e0 2.470572237473373e0 2.501648210640067e0 2.533115071429320e0
      2.564977736602143e0 2.597241184764802e0 2.629910457146704e0 2.662990658388129e0
      2.696486957337829e0 2.730404587860654e0 2.764748849655388e0 2.799525109082801e0
      2.834738800004186e0 2.870395424630397e0 2.906500554381567e0 2.943059830757686e0
      2.980078966220057e0 3.017563745083918e0 3.055520024422234e0 3.093953734980865e0
      3.132870882105290e0 3.172277546678913e0 3.212179886073254e0 3.252584135110031e0
      3.293496607035346e0 3.334923694506188e0 3.376871870589244e0 3.419347689772380e0
      3.462357788988766e0 3.505908888653897e0 3.550007793715713e0 3.594661394717838e0
      3.639876668876282e0 3.685660681169632e0 3.732020585442944e0 3.778963625525591e0
      3.826497136363082e0 3.874628545163199e0 3.923365372556497e0 3.972715233771399e0
      4.022685839824137e0 4.073284998723558e0 4.124520616691192e0 4.176400699396594e0
      4.228933353208223e0 4.282126786460130e0 4.335989310734467e0 4.390529342160247e0
      4.445755402728348e0 4.501676121623077e0 4.558300236570548e0 4.615636595203910e0
      4.673694156445857e0 4.732481991908462e0 4.792009287310605e0 4.852285343913317e0
      4.913319579973057e0 4.975121532213394e0 5.037700857315112e0 5.101067333425060e0
      5.165230861684065e0 5.230201467773943e0 5.295989303484089e0 5.362604648297688e0
      5.430057910997876e0 5.498359631294208e0 5.567520481469418e0 5.637551268047067e0
      5.708462933480044e0 5.780266557860327e0 5.852973360650328e0 5.926594702435889e0
      6.001142086701454e0 6.076627161627496e0 6.153061721910526e0 6.230457710606117e0
      6.308827220994943e0 6.388182498472458e0 6.468535942462229e0 6.549900108353338e0
      6.632287709462263e0 6.715711619019275e0 6.800184872179980e0 6.885720668062057e0
      6.972332371807615e0 7.060033516671601e0 7.148837806136304e0 7.238759116052639e0
      7.329811496808241e0 7.422009175522823e0 7.515366558271288e0 7.609898232334602e0
      7.705618968479177e0 7.802543723264794e0 7.900687641381555e0 8.000066058016371e0
      8.100694501248999e0 8.202588694478436e0 8.305764558879696e0 8.410238215891479e0
      8.516025989735269e0 8.623144409965931e0 8.731610214054573e0 8.841440350003777e0
      8.952651978995702e0 9.065262478073674e0 9.179289442857248e0 9.294750690291677e0
      9.411664261431801e0 9.530048424260935e0 9.649921676545409e0 9.771302748724745e0
      9.894210606838440e0 1.001866445548940e1 1.014468374084464e1 1.027228815367393e1
      1.040149763242634e1 1.053233236634583e1 1.066481279862578e1 1.079895962960322e1
      1.093479381999347e1 1.107233659416508e1 1.121160944345636e1 1.135263412953341e1
      1.149543268779029e1 1.164002743079230e1 1.178644095176216e1 1.193469612811044e1
      1.208481612501009e1 1.223682439901600e1 1.239074470173029e1 1.254660108351337e1
      1.270441789724200e1 1.286421980211444e1 1.302603176750340e1 1.318987907685772e1
      1.335578733165279e1 1.352378245539099e1 1.369389069765222e1 1.386613863819538e1
      1.404055319111165e1 1.421716160902974e1 1.439599148737427e1 1.457707076867761e1
      1.476042774694581e1 1.494609107207982e1 1.513408975435187e1 1.532445316893859e1
      1.551721106051082e1 1.571239354788124e1 1.591003112871066e1 1.611015468427312e1
      1.631279548428136e1 1.651798519177269e1 1.672575586805631e1 1.693613997772315e1
      1.714917039371833e1 1.736488040247779e1 1.758330370912928e1 1.780447444275881e1
      1.802842716174353e1 1.825519685915137e1 1.848481896820893e1 1.871732936783797e1
      1.895276438826140e1 1.919116081668022e1 1.943255590302135e1 1.967698736575816e1
      1.992449339780404e1 2.017511267247999e1 2.042888434955764e1 2.068584808137776e1
      2.094604401904628e1 2.120951281870787e1 2.147629564789844e1 2.174643419197789e1
      2.201997066064326e1 2.229694779452434e1 2.257740887186184e1 2.286139771526963e1
      2.314895869858234e1 2.344013675378859e1 2.373497737805194e1 2.403352664081985e1
      2.433583119102193e1 2.464193826435928e1 2.495189569068481e1 2.526575190147704e1
      2.558355593740748e1 2.590535745600326e1 2.623120673940643e1 2.656115470223040e1
      2.689525289951568e1 2.723355353478537e1 2.757610946820192e1 2.792297422482696e1
      2.827420200298430e1 2.862984768272893e1 2.898996683442191e1 2.935461572741326e1
      2.972385133883451e1 3.009773136250104e1 3.047631421792727e1 3.085965905945464e1
      3.124782578549447e1 3.164087504788753e1 3.203886826138062e1 3.244186761322315e1
      3.284993607288379e1 3.326313740188947e1 3.368153616378864e1 3.410519773423895e1
      3.453418831122280e1 3.496857492539070e1 3.540842545053474e1 3.585380861419449e1
      3.630479400839530e1 3.676145210052258e1 3.722385424433240e1 3.769207269110034e1
      3.816618060091146e1 3.864625205409109e1 3.913236206278059e1 3.962458658265788e1
      4.012300252480548e1 4.062768776772854e1 4.113872116952291e1 4.165618258019740e1
      4.218015285415027e1 4.271071386280273e1 4.324794850739194e1 4.379194073192399e1
      4.434277553629079e1 4.490053898955130e1 4.546531824337970e1 4.603720154568363e1
      4.661627825439239e1 4.720263885141995e1 4.779637495680266e1 4.839757934301476e1
      4.900634594946493e1 4.962276989717381e1 5.024694750363743e1 5.087897629787678e1
      5.151895503567666e1 5.216698371501710e1 5.282316359169748e1 5.348759719515860e1
      5.416038834450294e1 5.484164216471616e1 5.553146510309392e1 5.622996494587357e1
      5.693725083507677e1 5.765343328556279e1 5.837862420229640e1 5.911293689783395e1
      5.985648611002789e1 6.060938801995549e1 6.137176027007207e1 6.214372198259255e1
      6.292539377810532e1 6.371689779441851e1 6.451835770564511e1 6.532989874152695e1
      6.615164770700175e1 6.698373300201746e1 6.782628464159409e1 6.867943427613959e1
      6.954331521202026e1 7.041806243238968e1 7.130381261828095e1 7.220070416996241e1
      7.310887722856390e1 7.402847369797367e1 7.495963726701071e1 7.590251343187742e1
      7.685724951889258e1 7.782399470751236e1 7.880290005363946e1 7.979411851322557e1
      8.079780496617190e1 8.181411624052846e1 8.284321113699972e1 8.388525045375712e1
      8.494039701156360e1 8.600881567921588e1 8.709067339930419e1 8.818613921429849e1
      8.929538429296128e1 9.041858195709256e1 9.155590770861282e1 9.270753925698434e1
      9.387365654697971e1 9.505444178679815e1 9.625007947653536e1 9.746075643701330e1
      9.868666183896977e1 9.992798723261814e1 1.011849265775769e2
      </PP_R>
    <PP_RAB>
      7.599016379620968e-7 7.694600238908516e-7 7.791386395138184e-7 7.889389971343784e-7
      7.988626280783500e-7 8.089110829332572e-7 8.190859317906154e-7 8.293887644912596e-7
      8.398211908737586e-7 8.503848410259620e-7 8.610813655396974e-7 8.719124357686820e-7
      8.828797440896750e-7 8.939850041669139e-7 9.052299512198816e-7 9.166163422944321e-7
      9.281459565373362e-7 9.398205954742769e-7 9.516420832913395e-7 9.636122671200482e-7
      9.757330173259788e-7 9.880062278010106e-7 1.000433816259251e-6 1.013017724536679e-6
      1.025759918894567e-6 1.038662390326708e-6 1.051727154870512e-6 1.064956253922020e-6
      1.078351754554873e-6 1.091915749843300e-6 1.105650359189159e-6 1.119557728653106e-6
      1.133640031289912e-6 1.147899467488014e-6 1.162338265313333e-6 1.176958680857401e-6
      1.191762998589896e-6 1.206753531715580e-6 1.221932622535753e-6 1.237302642814239e-6
      1.252865994147977e-6 1.268625108342276e-6 1.284582447790792e-6 1.300740505860277e-6
      1.317101807280181e-6 1.333668908537137e-6 1.350444398274422e-6 1.367430897696439e-6
      1.384631060978278e-6 1.402047575680451e-6 1.419683163168811e-6 1.437540579039785e-6
      1.455622613550933e-6 1.473932092056934e-6 1.492471875451058e-6 1.511244860612180e-6
      1.530253980857423e-6 1.549502206400501e-6 1.568992544815815e-6 1.588728041508397e-6
      1.608711780189758e-6 1.628946883359723e-6 1.649436512794331e-6 1.670183870039866e-6
      1.691192196913112e-6 1.712464776007883e-6 1.734004931207941e-6 1.755816028206362e-6
      1.777901475031423e-6 1.800264722579128e-6 1.822909265152404e-6 1.845838641007097e-6
      1.869056432904836e-6 1.892566268672839e-6 1.916371821770780e-6 1.940476811864762e-6
      1.964885005408527e-6 1.989600216231978e-6 2.014626306137087e-6 2.039967185501319e-6
      2.065626813888632e-6 2.091609200668166e-6 2.117918405640715e-6 2.144558539673084e-6
      2.171533765340415e-6 2.198848297576601e-6 2.226506404332876e-6 2.254512407244689e-6
      2.282870682306974e-6 2.311585660557908e-6 2.340661828771260e-6 2.370103730157473e-6
      2.399915965073536e-6 2.430103191741806e-6 2.460670126977872e-6 2.491621546927550e-6