<?xml version="1.0" encoding="UTF-8"?>
<UPF version="2.0.1">
  <PP_INFO><![CDATA[
Generated using "atomic" code by A. Dal Corso  v.6.6
Author: ADC
Generation date:  9Nov2022
Pseudopotential type: PAW
Element: Pt
Functional:  SLA  PZ   NOGX NOGC
    Suggested minimum cutoff for wavefunctions:  77. Ry
    Suggested minimum cutoff for charge density: 392. Ry
    The Pseudo was generated with a Scalar-Relativistic Calculation
    Local Potential by smoothing AE potential with Bessel fncs, cutoff radius:   1.5000
    Valence configuration:
    nl pn  l   occ       Rcut    Rcut US       E pseu
    5S  1  0  2.00      1.000      1.300    -7.709834
    6S  2  0  2.00      1.000      1.300    -0.498482
    5P  2  1  6.00      1.100      1.300    -4.323686
    5D  3  2  8.00      1.300      1.500    -0.606654
    4F  4  3 14.00      1.200      1.500    -5.388199
    Generation configuration:
    5S  1  0  2.00      1.000      1.300    -7.709918
    6S  2  0  2.00      1.000      1.300    -0.498499
    5P  2  1  6.00      1.100      1.300    -4.323742
    6P  3  1  0.00      1.100      1.300    -2.500000
    5D  3  2  8.00      1.300      1.500    -0.606682
    5D  3  2  0.00      1.300      1.500     0.050000
    4F  4  3 14.00      1.200      1.500    -5.388340
    4F  4  3  0.00      1.200      1.500     2.200000
    Pseudization used: troullier-martins
]]>
    <PP_INPUTFILE><![CDATA[
 &input
   title='Pt',
   zed=78.,
   rel=1,
   config='[Xe] 4f14 6s2 6p0 5d8',
   iswitch=3,
   dft='LDA'
 /
 &inputp
   lpaw=.true.,
   pseudotype=3,
   file_pseudopw='Pt.pz-spfn-kjpaw_psl.1.0.0.UPF',
   author='ADC',
   lloc=-1,
   rcloc=1.5,
   which_augfun='PSQ',
   rmatch_augfun_nc=.true.,
   nlcc=.true.,
   new_core_ps=.true.,
   rcore=1.2,
   tm=.true.
 /
8
5S  1  0  2.00  0.00  1.00  1.30  0.0
6S  2  0  2.00  0.00  1.00  1.30  0.0
5P  2  1  6.00  0.00  1.10  1.30  0.0
6P  3  1  0.00 -2.50  1.10  1.30  0.0
5D  3  2  8.00  0.00  1.30  1.50  0.0
5D  3  2  0.00  0.05  1.30  1.50  0.0
4F  4  3 14.00  0.00  1.20  1.50  0.0
4F  4  3  0.00  2.20  1.20  1.50  0.0
]]></PP_INPUTFILE>
  </PP_INFO>
  <!--
 END OF HUMAN READABLE SECTION 
-->
  <PP_HEADER generated="Generated using &quot;atomic&quot; code by A. Dal Corso  v.6.6" author="ADC" date=" 9Nov2022" comment="" element="Pt" pseudo_type="PAW" relativistic="scalar" is_ultrasoft="true" is_paw="true" is_coulomb="false" has_so="false" has_wfc="true" has_gipaw="false" paw_as_gipaw="false" core_correction="true" functional=" SLA  PZ   NOGX NOGC" z_valence="3.200000000000e1" total_psenergy="-1.654087520369e3" wfc_cutoff="7.673281387338e1" rho_cutoff="3.919198869343e2" l_max="3" l_max_rho="6" l_local="-1" mesh_size="1277" number_of_wfc="5" number_of_proj="8"/>
  <PP_MESH dx="1.250000000000e-2" mesh="1277" xmin="-7.000000000000e0" rmax="1.000000000000e2" zmesh="7.800000000000e1">
    <PP_R>
      1.169079443018611e-5 1.183784652139772e-5 1.198674830021259e-5 1.213752303283659e-5
      1.229019427812846e-5 1.244478589128089e-5 1.260132202754793e-5 1.275982714601938e-5
      1.292032601344244e-5 1.308284370809173e-5 1.324740562368765e-5 1.341403747336434e-5
      1.358276529368731e-5 1.375361544872175e-5 1.392661463415202e-5 1.410178988145280e-5
      1.427916856211286e-5 1.445877839191196e-5 1.464064743525138e-5 1.482480410953920e-5
      1.501127718963044e-5 1.520009581232324e-5 1.539128948091155e-5 1.558488806979506e-5
      1.578092182914720e-5 1.597942138964166e-5 1.618041776723865e-5 1.638394236803109e-5
      1.659002699315190e-5 1.679870384374308e-5 1.701000552598707e-5 1.722396505620163e-5
      1.744061586599864e-5 1.765999180750791e-5 1.788212715866666e-5 1.810705662857540e-5
      1.833481536292147e-5 1.856543894947045e-5 1.879896342362697e-5 1.903542527406522e-5
      1.927486144843041e-5 1.951730935911194e-5 1.976280688908910e-5 2.001139239785041e-5
      2.026310472738740e-5 2.051798320826364e-5 2.077606766576034e-5 2.103739842609905e-5
      2.130201632274274e-5 2.156996270277617e-5 2.184127943336633e-5 2.211600890830439e-5
      2.239419405462974e-5 2.267587833933745e-5 2.296110577617013e-5 2.324992093249507e-5
      2.354236893626804e-5 2.383849548308463e-5 2.413834684332023e-5 2.444196986935995e-5
      2.474941200291935e-5 2.506072128245727e-5 2.537594635068201e-5 2.569513646215178e-5
      2.601834149097095e-5 2.634561193858281e-5 2.667699894166064e-5 2.701255428009786e-5
      2.735233038509882e-5 2.769638034737121e-5 2.804475792542160e-5 2.839751755395534e-5
      2.875471435238209e-5 2.911640413342830e-5 2.948264341185816e-5 2.985348941330402e-5
      3.022900008320812e-5 3.060923409587659e-5 3.099425086364747e-5 3.138411054617414e-5
      3.177887405982510e-5 3.217860308720255e-5 3.258336008678024e-5 3.299320830266281e-5
      3.340821177446793e-5 3.382843534733233e-5 3.425394468204424e-5 3.468480626530290e-5
      3.512108742010728e-5 3.556285631627549e-5 3.601018198109632e-5 3.646313431011497e-5
      3.692178407805440e-5 3.738620294987394e-5 3.785646349196726e-5 3.833263918350077e-5
      3.881480442789507e-5 3.930303456445055e-5 3.979740588011934e-5 4.029799562142538e-5
      4.080488200653419e-5 4.131814423747471e-5 4.183786251251473e-5 4.236411803869208e-5
      4.289699304450348e-5 4.343657079275271e-5 4.398293559356070e-5 4.453617281753916e-5
      4.509636890912986e-5 4.566361140011193e-5 4.623798892327860e-5 4.681959122628646e-5
      4.740850918567862e-5 4.800483482108437e-5 4.860866130959754e-5 4.922008300033543e-5
      4.983919542918117e-5 5.046609533371132e-5 5.110088066831143e-5 5.174365061948151e-5
      5.239450562133419e-5 5.305354737128765e-5 5.372087884595615e-5 5.439660431724026e-5
      5.508082936861975e-5 5.577366091165088e-5 5.647520720267187e-5 5.718557785971798e-5
      5.790488387964956e-5 5.863323765549580e-5 5.937075299401597e-5 6.011754513348220e-5
      6.087373076168561e-5 6.163942803416904e-5 6.241475659268927e-5 6.319983758391093e-5
      6.399479367833612e-5 6.479974908947197e-5 6.561482959323911e-5 6.644016254762466e-5
      6.727587691258185e-5 6.812210327018048e-5 6.897897384501053e-5 6.984662252484263e-5
      7.072518488154834e-5 7.161479819228333e-5 7.251560146093727e-5 7.342773543985366e-5
      7.435134265182233e-5 7.528656741234940e-5 7.623355585220633e-5 7.719245594026357e-5
      7.816341750661073e-5 7.914659226596797e-5 8.014213384139182e-5 8.115019778827881e-5
      8.217094161867157e-5 8.320452482587033e-5 8.425110890935400e-5 8.531085740001505e-5
      8.638393588571114e-5 8.747051203713879e-5 8.857075563403248e-5 8.968483859169243e-5
      9.081293498784776e-5 9.195522108985511e-5 9.311187538224219e-5 9.428307859459535e-5
      9.546901372979921e-5 9.666986609263173e-5 9.788582331871744e-5 9.911707540384704e-5
      1.003638147336638e-4 1.016262361137243e-4 1.029045367999380e-4 1.041989165293873e-4
      1.055095775515388e-4 1.068367246598437e-4 1.081805652237376e-4 1.095413092210429e-4
      1.109191692707774e-4 1.123143606663773e-4 1.137271014093366e-4 1.151576122432707e-4
      1.166061166884080e-4 1.180728410765146e-4 1.195580145862606e-4 1.210618692790284e-4
      1.225846401351731e-4 1.241265650907396e-4 1.256878850746388e-4 1.272688440462950e-4
      1.288696890337639e-4 1.304906701723316e-4 1.321320407435993e-4 1.337940572150578e-4
      1.354769792801622e-4 1.371810698989093e-4 1.389065953389250e-4 1.406538252170703e-4
      1.424230325415680e-4 1.442144937546623e-4 1.460284887758125e-4 1.478653010454311e-4
      1.497252175691725e-4 1.516085289627771e-4 1.535155294974823e-4 1.554465171460012e-4
      1.574017936290825e-4 1.593816644626550e-4 1.613864390055640e-4 1.634164305079111e-4
      1.654719561599983e-4 1.675533371418908e-4 1.696608986736018e-4 1.717949700659080e-4
      1.739558847718068e-4 1.761439804386172e-4 1.783595989607387e-4 1.806030865330735e-4
      1.828747937051187e-4 1.851750754357420e-4 1.875042911486439e-4 1.898628047885180e-4
      1.922509848779194e-4 1.946692045748455e-4 1.971178417310440e-4 1.995972789510525e-4
      2.021079036519806e-4 2.046501081240465e-4 2.072242895918702e-4 2.098308502765439e-4
      2.124701974584776e-4 2.151427435410379e-4 2.178489061149882e-4 2.205891080237357e-4
      2.233637774294040e-4 2.261733478797328e-4 2.290182583758209e-4 2.318989534407220e-4
      2.348158831888997e-4 2.377695033965626e-4 2.407602755728770e-4 2.437886670320802e-4
      2.468551509664991e-4 2.499602065204871e-4 2.531043188652920e-4 2.562879792748645e-4
      2.595116852026204e-4 2.627759403591700e-4 2.660812547910223e-4 2.694281449602824e-4
      2.728171338253484e-4 2.762487509226253e-4 2.797235324492664e-4 2.832420213469544e-4
      2.868047673867385e-4 2.904123272549355e-4 2.940652646401145e-4 2.977641503211740e-4
      3.015095622565270e-4 3.053020856744087e-4 3.091423131643189e-4 3.130308447696159e-4
      3.169682880812743e-4 3.209552583328224e-4 3.249923784964737e-4 3.290802793804671e-4
      3.332195997276326e-4 3.374109863151964e-4 3.416550940558396e-4 3.459525861000318e-4
      3.503041339396483e-4 3.547104175128921e-4 3.591721253105362e-4 3.636899544835013e-4
      3.682646109517876e-4 3.728968095147753e-4 3.775872739629139e-4 3.823367371908168e-4
      3.871459413117757e-4 3.920156377737191e-4 3.969465874766268e-4 4.019395608914216e-4
      4.069953381803584e-4 4.121147093189240e-4 4.172984742192748e-4 4.225474428552227e-4
      4.278624353887959e-4 4.332442822983918e-4 4.386938245085389e-4 4.442119135212952e-4
      4.497994115492954e-4 4.554571916504740e-4 4.611861378644829e-4 4.669871453508235e-4
      4.728611205287181e-4 4.788089812187388e-4 4.848316567862191e-4 4.909300882864700e-4
      4.971052286118206e-4 5.033580426405106e-4 5.096895073874529e-4 5.161006121568955e-4
      5.225923586970028e-4 5.291657613563788e-4 5.358218472425631e-4 5.425616563825169e-4
      5.493862418851307e-4 5.562966701057741e-4 5.632940208129156e-4 5.703793873568400e-4
      5.775538768404848e-4 5.848186102924284e-4 5.921747228420528e-4 5.996233638969100e-4
      6.071656973223195e-4 6.148029016232241e-4 6.225361701283330e-4 6.303667111765844e-4
      6.382957483059481e-4 6.463245204446075e-4 6.544542821045438e-4 6.626863035775566e-4
      6.710218711337484e-4 6.794622872225102e-4 6.880088706760273e-4 6.966629569153524e-4
      7.054258981590675e-4 7.142990636345692e-4 7.232838397920172e-4 7.323816305209652e-4
      7.415938573697243e-4 7.509219597674815e-4 7.603673952492144e-4 7.699316396834353e-4
      7.796161875027946e-4 7.894225519375928e-4 7.993522652522239e-4 8.094068789845945e-4
      8.195879641885586e-4 8.298971116793917e-4 8.403359322823636e-4 8.509060570844314e-4
      8.616091376890994e-4 8.724468464744897e-4 8.834208768546485e-4 8.945329435441495e-4
      9.057847828260208e-4 9.171781528230413e-4 9.287148337724547e-4 9.403966283041299e-4
      9.522253617222296e-4 9.642028822904159e-4 9.763310615206453e-4 9.886117944655989e-4
      1.001047000014784e-3 1.013638621194368e-3 1.026388625470777e-3 1.039299005058118e-3
      1.052371777229472e-3 1.065608984632084e-3 1.079012695606544e-3 1.092585004509960e-3
      1.106328032043212e-3 1.120243925582312e-3 1.134334859513940e-3 1.148603035575189e-3
      1.163050683197597e-3 1.177680059855499e-3 1.192493451418763e-3 1.207493172509957e-3
      1.222681566866021e-3 1.238061007704473e-3 1.253633898094231e-3 1.269402671331106e-3
      1.285369791317997e-3 1.301537752949886e-3 1.317909082503672e-3 1.334486338032906e-3
      1.351272109767492e-3 1.368269020518413e-3 1.385479726087555e-3 1.402906915682680e-3
      1.420553312337615e-3 1.438421673337740e-3 1.456514790650818e-3 1.474835491363236e-3
      1.493386638121756e-3 1.512171129580802e-3 1.531191900855380e-3 1.550451923979701e-3
      1.569954208371563e-3 1.589701801302581e-3 1.609697788374325e-3 1.629945294000456e-3
      1.650447481894926e-3 1.671207555566304e-3 1.692228758818337e-3 1.713514376256802e-3
      1.735067733802727e-3 1.756892199212083e-3 1.778991182601991e-3 1.801368136983567e-3
      1.824026558801457e-3 1.846969988480170e-3 1.870202010977275e-3 1.893726256343549e-3
      1.917546400290194e-3 1.941666164763163e-3 1.966089318524724e-3 1.990819677742346e-3
      2.015861106584970e-3 2.041217517826799e-3 2.066892873458678e-3 2.092891185307159e-3
      2.119216515661366e-3 2.145872977907725e-3 2.172864737172695e-3 2.200196010973575e-3
      2.227871069877502e-3 2.255894238168738e-3 2.284269894524340e-3 2.313002472698344e-3
      2.342096462214549e-3 2.371556409068003e-3 2.401386916435347e-3 2.431592645394043e-3
      2.462178315650695e-3 2.493148706278508e-3 2.524508656464026e-3 2.556263066263271e-3
      2.588416897367378e-3 2.620975173877873e-3 2.653942983091703e-3 2.687325476296126e-3
      2.721127869573630e-3 2.755355444616931e-3 2.790013549554269e-3 2.825107599785052e-3
      2.860643078826024e-3 2.896625539168088e-3 2.933060603143878e-3 2.969953963806268e-3
      3.007311385817921e-3 3.045138706352027e-3 3.083441836004387e-3 3.122226759716933e-3
      3.161499537712905e-3 3.201266306443766e-3 3.241533279548031e-3 3.282306748822181e-3
      3.323593085203739e-3 3.365398739766762e-3 3.407730244729831e-3 3.450594214476716e-3
      3.493997346589905e-3 3.537946422897092e-3 3.582448310530864e-3 3.627509963001706e-3
      3.673138421284489e-3 3.719340814918659e-3 3.766124363122217e-3 3.813496375919753e-3
      3.861464255284645e-3 3.910035496295632e-3 3.959217688307947e-3 4.009018516139152e-3
      4.059445761269915e-3 4.110507303059883e-3 4.162211119978842e-3 4.214565290853386e-3
      4.267577996129226e-3 4.321257519149416e-3 4.375612247448640e-3 4.430650674063775e-3
      4.486381398860967e-3 4.542813129879343e-3 4.599954684691689e-3 4.657814991782199e-3
      4.716403091941568e-3 4.775728139679654e-3 4.835799404655860e-3 4.896626273127553e-3
      4.958218249416686e-3 5.020584957394859e-3 5.083736141987089e-3 5.147681670694446e-3
      5.212431535135888e-3 5.277995852609472e-3 5.344384867673185e-3 5.411608953745713e-3
      5.479678614727267e-3 5.548604486640865e-3 5.618397339294225e-3 5.689068077962562e-3
      5.760627745092586e-3 5.833087522027868e-3 5.906458730755975e-3 5.980752835677547e-3
      6.055981445397625e-3 6.132156314539539e-3 6.209289345581571e-3 6.287392590716747e-3
      6.366478253736024e-3 6.446558691935140e-3 6.527646418045503e-3 6.609754102189286e-3
      6.692894573859185e-3 6.777080823923047e-3 6.862326006653721e-3 6.948643441784452e-3
      7.036046616590085e-3 7.124549187994509e-3 7.214164984704565e-3 7.304908009370807e-3
      7.396792440775471e-3 7.489832636047899e-3 7.584043132907890e-3 7.679438651937254e-3
      7.776034098879916e-3 7.873844566971000e-3 7.972885339295132e-3 8.073171891174493e-3
      8.174719892586843e-3 8.277545210614001e-3 8.381663911921121e-3 8.487092265267105e-3
      8.593846744046662e-3 8.701944028864293e-3 8.811401010140669e-3 8.922234790751824e-3
      9.034462688701456e-3 9.148102239826962e-3 9.263171200539393e-3 9.379687550597971e-3
      9.497669495919460e-3 9.617135471422847e-3 9.738104143909856e-3 9.860594414981680e-3
      9.984625423992368e-3 1.011021655103944e-2 1.023738741999201e-2 1.036615790155709e-2
      1.049654811638439e-2 1.062857843821026e-2 1.076226949704112e-2 1.089764218237690e-2
      1.103471764647511e-2 1.117351730765588e-2 1.131406285364866e-2 1.145637624498097e-2
      1.160047971840974e-2 1.174639579039587e-2 1.189414726062248e-2 1.204375721555738e-2
      1.219524903206044e-2 1.234864638103618e-2 1.250397323113248e-2 1.266125385248567e-2
      1.282051282051282e-2 1.298177501975173e-2 1.314506564774909e-2 1.331041021899776e-2
      1.347783456892339e-2 1.364736485792127e-2 1.381902757544400e-2 1.399284954414041e-2
      1.416885792404677e-2 1.434708021683053e-2 1.452754427008752e-2 1.471027828169324e-2
      1.489531080420876e-2 1.508267074934220e-2 1.527238739246614e-2 1.546449037719206e-2
      1.565900972000218e-2 1.585597581493956e-2 1.605541943835724e-2 1.625737175372719e-2
      1.646186431650951e-2 1.666892907908322e-2 1.687859839573874e-2 1.709090502773338e-2
      1.730588214841031e-2 1.752356334838201e-2 1.774398264077887e-2 1.796717446656376e-2
      1.819317369991357e-2 1.842201565366828e-2 1.865373608484873e-2 1.888837120024379e-2
      1.912595766206757e-2 1.936653259368812e-2 1.961013358542795e-2 1.985679870043761e-2
      2.010656648064320e-2 2.035947595276851e-2 2.061556663443312e-2 2.087487854032706e-2
      2.113745218846319e-2 2.140332860650825e-2 2.167254933819349e-2 2.194515644980596e-2
      2.222119253676150e-2 2.250070073026023e-2 2.278372470402614e-2 2.307030868113089e-2
      2.336049744090397e-2 2.365433632592950e-2 2.395187124913106e-2 2.425314870094577e-2
      2.455821575658842e-2 2.486712008340712e-2 2.517990994833139e-2 2.549663422541400e-2
      2.581734240346766e-2 2.614208459379764e-2 2.647091153803189e-2 2.680387461604945e-2
      2.714102585400865e-2 2.748241793247641e-2 2.782810419465953e-2 2.817813865473978e-2
      2.853257600631371e-2 2.889147163093857e-2 2.925488160678595e-2 2.962286271740391e-2
      2.999547246058964e-2 3.037276905737361e-2 3.075481146111664e-2 3.114165936672165e-2
      3.153337321996091e-2 3.193001422692093e-2 3.233164436356603e-2 3.273832638542213e-2
      3.315012383738265e-2 3.356710106363720e-2 3.398932321772574e-2 3.441685627271887e-2
      3.484976703152621e-2 3.528812313733471e-2 3.573199308417758e-2 3.618144622763717e-2
      3.663655279568161e-2 3.709738389963797e-2 3.756401154530391e-2 3.803650864419832e-2
      3.851494902495426e-2 3.899940744485469e-2 3.948995960151322e-2 3.998668214470250e-2
      4.048965268833038e-2 4.099894982256763e-2 4.151465312612773e-2 4.203684317870094e-2
      4.256560157354553e-2 4.310101093023628e-2 4.364315490757459e-2 4.419211821665996e-2
      4.474798663412617e-2 4.531084701554454e-2 4.588078730899462e-2 4.645789656880694e-2
      4.704226496947753e-2 4.763398381975775e-2 4.823314557692198e-2 4.883984386121362e-2
      4.945417347047401e-2 5.007623039495455e-2 5.070611183231510e-2 5.134391620281191e-2
      5.198974316467534e-2 5.264369362968219e-2 5.330586977892322e-2 5.397637507876873e-2
      5.465531429703619e-2 5.534279351935955e-2 5.603892016576610e-2 5.674380300746074e-2
      5.745755218382134e-2 5.818027921960907e-2 5.891209704239346e-2 5.965312000019831e-2
      6.040346387936852e-2 6.116324592266157e-2 6.193258484756774e-2 6.271160086485905e-2
      6.350041569737325e-2 6.429915259903285e-2 6.510793637410361e-2 6.592689339669604e-2
      6.675615163051090e-2 6.759584064883449e-2 6.844609165478435e-2 6.930703750180983e-2
      7.017881271445136e-2 7.106155350935928e-2 7.195539781657891e-2 7.286048530110190e-2
      7.377695738468885e-2 7.470495726796768e-2 7.564462995280792e-2 7.659612226497848e-2
      7.755958287708910e-2 7.853516233182035e-2 7.952301306544706e-2 8.052328943165598e-2
      8.153614772566447e-2 8.256174620864185e-2 8.360024513243735e-2 8.465180676462094e-2
      8.571659541383681e-2 8.679477745547787e-2 8.788652135768181e-2 8.899199770765430e-2
      9.011137923832436e-2 9.124484085533330e-2 9.239255966436493e-2 9.355471499881840e-2
      9.473148844782886e-2 9.592306388464213e-2 9.712962749534421e-2 9.835136780795420e-2
      9.958847572188178e-2 1.008411445377550e-1 1.021095699876254e-1 1.033939502655497e-1
      1.046944860585596e-1 1.060113805780189e-1 1.073448395913752e-1 1.086950714543126e-1
      1.100622871433064e-1 1.114467002885898e-1 1.128485272075335e-1 1.142679869384454e-1
      1.157053012747965e-1 1.171606947998760e-1 1.186343949218832e-1 1.201266319094607e-1
      1.216376389276734e-1 1.231676520744424e-1 1.247169104174344e-1 1.262856560314177e-1
      1.278741340360863e-1 1.294825926343597e-1 1.311112831511668e-1 1.327604600727140e-1
      1.344303810862509e-1 1.361213071203335e-1 1.378335023855943e-1 1.395672344160275e-1
      1.413227741107898e-1 1.431003957765303e-1 1.449003771702511e-1 1.467229995427067e-1
      1.485685476823513e-1 1.504373099598361e-1 1.523295783730692e-1 1.542456485928402e-1
      1.561858200090189e-1 1.581503957773367e-1 1.601396828667540e-1 1.621539921074259e-1
      1.641936382392698e-1 1.662589399611427e-1 1.683502199806414e-1 1.704678050645229e-1
      1.726120260897655e-1 1.747832180952662e-1 1.769817203341935e-1 1.792078763269955e-1
      1.814620339150744e-1 1.837445453151404e-1 1.860557671742426e-1 1.883960606254993e-1
      1.907657913445237e-1 1.931653296065614e-1 1.955950503443485e-1 1.980553332066926e-1
      2.005465626177971e-1 2.030691278373260e-1 2.056234230212266e-1 2.082098472833187e-1
      2.108288047576546e-1 2.134807046616685e-1 2.161659613601160e-1 2.188849944298187e-1
      2.216382287252264e-1 2.244260944447986e-1 2.272490271982262e-1 2.301074680744956e-1
      2.330018637108085e-1 2.359326663623727e-1 2.389003339730643e-1 2.419053302469857e-1
      2.449481247209188e-1 2.480291928376900e-1 2.511490160204618e-1 2.543080817479530e-1
      2.575068836306111e-1 2.607459214877388e-1 2.640257014255902e-1 2.673467359164543e-1
      2.707095438787260e-1 2.741146507579916e-1 2.775625886091292e-1 2.810538961794419e-1
      2.845891189928418e-1 2.881688094350849e-1 2.917935268400863e-1 2.954638375773154e-1
      2.991803151402913e-1 3.029435402361955e-1 3.067541008766045e-1 3.106125924693715e-1
      3.145196179116586e-1 3.184757876841391e-1 3.224817199463897e-1 3.265380406334756e-1
      3.306453835537572e-1 3.348043904879230e-1 3.390157112892667e-1 3.432800039852328e-1
      3.475979348802296e-1 3.519701786597448e-1 3.563974184957653e-1 3.608803461535212e-1
      3.654196620995810e-1 3.700160756112953e-1 3.746703048876275e-1 3.793830771613715e-1
      3.841551288127824e-1 3.889872054846405e-1 3.938800621987556e-1 3.988344634739444e-1
      4.038511834454868e-1 4.089310059860834e-1 4.140747248283426e-1 4.192831436887971e-1
      4.245570763934912e-1 4.298973470051406e-1 4.353047899518917e-1 4.407802501577081e-1
      4.463245831743852e-1 4.519386553152377e-1 4.576233437904603e-1 4.633795368441914e-1
      4.692081338933082e-1 4.751100456679564e-1 4.810861943538590e-1 4.871375137364077e-1
      4.932649493465658e-1 4.994694586086156e-1 5.057520109897506e-1 5.121135881515633e-1
      5.185551841034286e-1 5.250778053578181e-1 5.316824710875744e-1 5.383702132851540e-1
      5.451420769238818e-1 5.519991201212303e-1 5.589424143041476e-1 5.659730443764780e-1
      5.730921088884725e-1 5.803007202084457e-1 5.876000046965836e-1 5.949911028809356e-1
      6.024751696356327e-1 6.100533743613296e-1 6.177269011679335e-1 6.254969490596213e-1
      6.333647321221819e-1 6.413314797127284e-1 6.493984366517777e-1 6.575668634177655e-1
      6.658380363439935e-1 6.742132478180570e-1 6.826938064837909e-1 6.912810374457380e-1
      6.999762824762081e-1 7.087809002249293e-1 7.176962664313353e-1 7.267237741395368e-1
      7.358648339159775e-1 7.451208740698459e-1 7.544933408762494e-1 7.639836988021922e-1
      7.735934307354110e-1 7.833240382160689e-1 7.931770416713832e-1 8.031539806531912e-1
      8.132564140785044e-1 8.234859204731020e-1 8.338440982181668e-1 8.443325658000475e-1
      8.549529620631438e-1 8.657069464659763e-1 8.765961993404900e-1 8.876224221545980e-1
      8.987873377780494e-1 9.100926907516273e-1 9.215402475597317e-1 9.331317969064070e-1
      9.448691499948186e-1 9.567541408102681e-1 9.687886264067524e-1 9.809744871971267e-1
      9.933136272469355e-1 1.005807974571912e0 1.018459481439248e0 1.031270124672632e0
      1.044241905961130e0 1.057376852171963e0 1.070677015667196e0 1.084144474624436e0
      1.097781333361547e0 1.111589722665447e0 1.125571800125063e0 1.139729750468440e0
      1.154065785904126e0 1.168582146466826e0 1.183281100367409e0 1.198164944347330e0
      1.213236004037489e0 1.228496634321627e0 1.243949219704275e0 1.259596174683334e0
      1.275439944127358e0 1.291483003657553e0 1.307727860034611e0 1.324177051550395e0
      1.340833148424541e0 1.357698753206077e0 1.374776501180059e0 1.392069060779354e0
      1.409579134001585e0 1.427309456831312e0 1.445262799667556e0 1.463441967756654e0
      1.481849801630611e0 1.500489177550922e0 1.519363007957991e0 1.538474241926225e0
      1.557825865624807e0 1.577420902784315e0 1.597262415169173e0 1.617353503056053e0
      1.637697305718321e0 1.658297001916525e0 1.679155810395110e0 1.700276990385342e0
      1.721663842114558e0 1.743319707321860e0 1.765247969780240e0 1.787452055825323e0
      1.809935434890731e0 1.832701620050180e0 1.855754168566425e0 1.879096682447067e0
      1.902732809007392e0 1.926666241440269e0 1.950900719393200e0 1.975440029552678e0
      2.000288006235835e0 2.025448531989583e0 2.050925538197265e0 2.076723005692927e0
      2.102844965383359e0 2.129295498877899e0 2.156078739126224e0 2.183198871064117e0
      2.210660132267363e0 2.238466813613903e0 2.266623259954262e0 2.295133870790470e0
      2.324003100963479e0 2.353235461349231e0 2.382835519563517e0 2.412807900675647e0
      2.443157287931154e0 2.473888423483546e0 2.505006109135269e0 2.536515207088022e0
      2.568420640702459e0 2.600727395267499e0 2.633440518779274e0 2.666565122729880e0
      2.700106382906086e0 2.734069540198026e0 2.768459901418129e0 2.803282840130310e0
      2.838543797489579e0 2.874248283092273e0 2.910401875836899e0 2.947010224795882e0
      2.984079050098234e0 3.021614143823316e0 3.059621370905896e0 3.098106670052523e0
      3.137076054669492e0 3.176535613802440e0 3.216491513087751e0 3.256949995715991e0
      3.297917383407371e0 3.339400077399574e0 3.381404559447939e0 3.423937392838233e0
      3.467005223412218e0 3.510614780606033e0 3.554772878501718e0 3.599486416891917e0
      3.644762382357960e0 3.690607849361581e0 3.737029981350259e0 3.784036031876568e0
      3.831633345731546e0 3.879829360092306e0 3.928631605684161e0 3.978047707957262e0
      4.028085388278130e0 4.078752465136129e0 4.130056855365083e0 4.182006575380363e0
      4.234609742431396e0 4.287874575870065e0 4.341809398434969e0 4.396422637551851e0
      4.451722826650450e0 4.507718606497805e0 4.564418726548450e0 4.621832046311509e0
      4.679967536734986e0 4.738834281607554e0 4.798441478977848e0 4.858798442591738e0
      4.919914603347593e0 4.981799510769856e0 5.044462834501236e0 5.107914365813538e0
      5.172164019137630e0 5.237221833612571e0 5.303097974654215e0 5.369802735543645e0
      5.437346539035444e0 5.505739938986332e0 5.574993622004214e0 5.645118409117935e0
      5.716125257468174e0 5.788025262019429e0 5.860829657293705e0 5.934549819125892e0
      6.009197266441244e0 6.084783663055294e0 6.161320819496274e0 6.238820694850605e0
      6.317295398631497e0 6.396757192671052e0 6.477218493036276e0 6.558691871969028e0
      6.641190059850538e0 6.724725947190518e0 6.809312586641297e0 6.894963195037403e0
      6.981691155460633e0 7.069510019331267e0 7.158433508525461e0 7.248475517519298e0
      7.339650115559896e0 7.431971548863672e0 7.525454242842421e0 7.620112804357285e0
      7.715962024001054e0 7.813016878409335e0 7.911292532600560e0 8.010804342345653e0
      8.111567856567360e0 8.213598819769755e0 8.316913174498449e0 8.421527063831535e0
      8.527456833902075e0 8.634719036452172e0 8.743330431419173e0 8.853307989554542e0
      8.964668895075459e0 9.077430548349993e0 9.191610568615896e0 9.307226796733607e0
      9.424297297974025e0 9.542840364841116e0 9.662874519930273e0 9.784418518822458e0
      9.907491353014743e0 1.003211225288790e1 1.015830069071105e1 1.028607638368435e1
      1.041545929701979e1 1.054646964706080e1 1.067912790444114e1 1.081345479728338e1
      1.094947131443784e1 1.108719870876207e1 1.122665850044162e1 1.136787248035268e1
      1.151086271346690e1 1.165565154229913e1 1.180226159039848e1 1.195071576588318e1
      1.210103726502025e1 1.225324957584971e1 1.240737648185483e1 1.256344206567826e1
      1.272147071288495e1 1.288148711577259e1 1.304351627722963e1 1.320758351464223e1
      1.337371446385005e1 1.354193508315186e1 1.371227165736172e1 1.388475080191585e1
      1.405939946703152e1 1.423624494191801e1 1.441531485904052e1 1.459663719843796e1
      1.478024029209473e1 1.496615282836776e1 1.515440385646913e1 1.534502279100492e1
      1.553803941657152e1 1.573348389240932e1 1.593138675711533e1 1.613177893341483e1
      1.633469173299300e1 1.654015686138767e1 1.674820642294311e1 1.695887292582663e1
      1.717218928710794e1 1.738818883790242e1 1.760690532857939e1 1.782837293403545e1
      1.805262625903456e1 1.827970034361503e1 1.850963066856449e1 1.874245316096409e1
      1.897820419980188e1 1.921692062165733e1 1.945863972645709e1 1.970339928330298e1
      1.995123753637380e1 2.020219321090075e1 2.045630551921858e1 2.071361416689251e1
      2.097415935892214e1 2.123798180602391e1 2.150512273099184e1 2.177562387513900e1
      2.204952750481954e1 2.232687641803278e1 2.260771395111076e1 2.289208398548932e1
      2.318003095456491e1 2.347159985063734e1 2.376683623193972e1 2.406578622975740e1
      2.436849655563565e1 2.467501450867881e1 2.498538798294071e1 2.529966547490805e1
      2.561789609107847e1 2.594012955563310e1 2.626641621820639e1 2.659680706175325e1
      2.693135371051510e1 2.727010843808652e1 2.761312417558282e1 2.796045451991089e1
      2.831215374214373e1 2.866827679600025e1 2.902887932643227e1 2.939401767831870e1
      2.976374890526996e1 3.013813077854254e1 3.051722179606572e1 3.090108119158236e1
      3.128976894390386e1 3.168334578628238e1 3.208187321590033e1 3.248541350347928e1
      3.289402970301030e1 3.330778566160578e1 3.372674602947610e1 3.415097627003118e1
      3.458054267010910e1 3.501551235033395e1 3.545595327560308e1 3.590193426570722e1
      3.635352500608350e1 3.681079605870374e1 3.727381887310036e1 3.774266579753000e1
      3.821741009027857e1 3.869812593110773e1 3.918488843284551e1 3.967777365312326e1
      4.017685860625931e1 4.068222127529302e1 4.119394062416972e1 4.171209661007857e1
      4.223677019594674e1 4.276804336308934e1 4.330599912401968e1 4.385072153541996e1
      4.440229571127506e1 4.496080783617230e1 4.552634517876734e1 4.609899610542063e1
      4.667885009400460e1 4.726599774788453e1 4.786053081007609e1 4.846254217757964e1