<?xml version="1.0" encoding="UTF-8"?>
<UPF version="2.0.1">
  <PP_INFO><![CDATA[
Generated using "atomic" code by A. Dal Corso  v.6.6
Author: ADC
Generation date:  9Nov2022
Pseudopotential type: PAW
Element: Re
Functional:  SLA  PZ   NOGX NOGC
    Suggested minimum cutoff for wavefunctions:  52. Ry
    Suggested minimum cutoff for charge density: 437. Ry
    The Pseudo was generated with a Scalar-Relativistic Calculation
    Local Potential by smoothing AE potential with Bessel fncs, cutoff radius:   1.5000
    Valence configuration:
    nl pn  l   occ       Rcut    Rcut US       E pseu
    5S  1  0  2.00      1.000      1.300    -6.284529
    6S  2  0  2.00      1.000      1.300    -0.452913
    5P  2  1  6.00      1.100      1.300    -3.469774
    5D  3  2  5.00      1.500      1.800    -0.409528
    4F  4  3 14.00      1.100      1.800    -3.130816
    Generation configuration:
    5S  1  0  2.00      1.000      1.300    -6.284603
    6S  2  0  2.00      1.000      1.300    -0.452928
    5P  2  1  6.00      1.100      1.300    -3.469820
    6P  3  1  0.00      1.100      1.300    -2.400000
    5D  3  2  5.00      1.500      1.800    -0.409551
    5D  3  2  0.00      1.500      1.800     0.050000
    4F  4  3 14.00      1.100      1.800    -3.130977
    4F  4  3  0.00      1.100      1.800     1.000000
    Pseudization used: troullier-martins
]]>
    <PP_INPUTFILE><![CDATA[
 &input
   title='Re',
   zed=75.,
   rel=1,
   config='[Xe] 4f14 6s2 6p0 5d5',
   iswitch=3,
   dft='LDA'
 /
 &inputp
   lpaw=.true.,
   pseudotype=3,
   file_pseudopw='Re.pz-spfn-kjpaw_psl.1.0.0.UPF',
   author='ADC',
   lloc=-1,
   rcloc=1.5,
   which_augfun='PSQ',
   rmatch_augfun_nc=.true.,
   nlcc=.true.,
   new_core_ps=.true.,
   rcore=1.0,
   tm=.true.
 /
8
5S  1  0  2.00  0.00  1.00  1.30  0.0
6S  2  0  2.00  0.00  1.00  1.30  0.0
5P  2  1  6.00  0.00  1.10  1.30  0.0
6P  3  1  0.00 -2.40  1.10  1.30  0.0
5D  3  2  5.00  0.00  1.50  1.80  0.0
5D  3  2  0.00  0.05  1.50  1.80  0.0
4F  4  3 14.00  0.00  1.10  1.80  0.0
4F  4  3  0.00  1.00  1.10  1.80  0.0
]]></PP_INPUTFILE>
  </PP_INFO>
  <!--
 END OF HUMAN READABLE SECTION 
-->
  <PP_HEADER generated="Generated using &quot;atomic&quot; code by A. Dal Corso  v.6.6" author="ADC" date=" 9Nov2022" comment="" element="Re" pseudo_type="PAW" relativistic="scalar" is_ultrasoft="true" is_paw="true" is_coulomb="false" has_so="false" has_wfc="true" has_gipaw="false" paw_as_gipaw="false" core_correction="true" functional=" SLA  PZ   NOGX NOGC" z_valence="2.900000000000e1" total_psenergy="-1.374697617632e3" wfc_cutoff="5.233707326985e1" rho_cutoff="4.374524739683e2" l_max="3" l_max_rho="6" l_local="-1" mesh_size="1275" number_of_wfc="5" number_of_proj="8"/>
  <PP_MESH dx="1.250000000000e-2" mesh="1275" xmin="-7.000000000000e0" rmax="1.000000000000e2" zmesh="7.500000000000e1">
    <PP_R>
      1.215842620739355e-5 1.231136038225363e-5 1.246621823222109e-5 1.262302395415005e-5
      1.278180204925360e-5 1.294257732693212e-5 1.310537490864985e-5 1.327022023186015e-5
      1.343713905398014e-5 1.360615745641539e-5 1.377730184863516e-5 1.395059897229891e-5
      1.412607590543480e-5 1.430376006667062e-5 1.448367921951811e-5 1.466586147671091e-5
      1.485033530459738e-5 1.503712952758843e-5 1.522627333266143e-5 1.541779627392077e-5
      1.561172827721566e-5 1.580809964481617e-5 1.600694106014801e-5 1.620828359258686e-5
      1.641215870231308e-5 1.661859824522733e-5 1.682763447792819e-5 1.703930006275233e-5
      1.725362807287797e-5 1.747065199749280e-5 1.769040574702655e-5 1.791292365844969e-5
      1.813824050063859e-5 1.836639147980823e-5 1.859741224501332e-5 1.883133889371842e-5
      1.906820797743833e-5 1.930805650744927e-5 1.955092196057204e-5 1.979684228502782e-5
      2.004585590636763e-5 2.029800173347642e-5 2.055331916465267e-5 2.081184809376444e-5
      2.107362891648290e-5 2.133870253659420e-5 2.160711037239075e-5 2.187889436314301e-5
      2.215409697565245e-5 2.243276121088722e-5 2.271493061070098e-5 2.300064926463656e-5
      2.328996181681493e-5 2.358291347291094e-5 2.387955000721694e-5 2.417991776979487e-5
      2.448406369371877e-5 2.479203530240801e-5 2.510388071705303e-5 2.541964866413435e-5
      2.573938848303612e-5 2.606315013375556e-5 2.639098420470928e-5 2.672294192063785e-5
      2.705907515060979e-5 2.739943641612612e-5 2.774407889932706e-5 2.809305645130178e-5
      2.844642360050278e-5 2.880423556126606e-5 2.916654824243847e-5 2.953341825611355e-5
      2.990490292647738e-5 3.028106029876543e-5 3.066194914833249e-5 3.104762898983618e-5
      3.143816008653644e-5 3.183360345971164e-5 3.223402089819338e-5 3.263947496802110e-5
      3.305002902221811e-5 3.346574721069064e-5 3.388669449025144e-5 3.431293663476933e-5
      3.474454024544665e-5 3.518157276122562e-5 3.562410246932601e-5 3.607219851591502e-5
      3.652593091691158e-5 3.698537056892651e-5 3.745058926034017e-5 3.792165968251957e-5
      3.839865544117658e-5 3.888165106786890e-5 3.937072203164595e-5 3.986594475084080e-5
      4.036739660501087e-5 4.087515594702857e-5 4.138930211532412e-5 4.190991544628241e-5
      4.243707728679555e-5 4.297087000697370e-5 4.351137701301530e-5 4.405868276023977e-5
      4.461287276628363e-5 4.517403362446283e-5 4.574225301730312e-5 4.631761973024072e-5
      4.690022366549504e-5 4.749015585611639e-5 4.808750848020974e-5 4.869237487533791e-5
      4.930484955310576e-5 4.992502821392773e-5 5.055300776198144e-5 5.118888632034885e-5
      5.183276324634840e-5 5.248473914705977e-5 5.314491589504388e-5 5.381339664426078e-5
      5.449028584618755e-5 5.517568926613915e-5 5.586971399979440e-5 5.657246848992987e-5
      5.728406254336454e-5 5.800460734811692e-5 5.873421549077874e-5 5.947300097410669e-5
      6.022107923483555e-5 6.097856716171563e-5 6.174558311377661e-5 6.252224693882148e-5
      6.330867999215305e-5 6.410500515553580e-5 6.491134685639686e-5 6.572783108726736e-5
      6.655458542546956e-5 6.739173905305085e-5 6.823942277696870e-5 6.909776904952965e-5
      6.996691198908512e-5 7.084698740098769e-5 7.173813279881093e-5 7.264048742583634e-5
      7.355419227681028e-5 7.447939011997464e-5 7.541622551937478e-5 7.636484485744779e-5
      7.732539635789522e-5 7.829803010884334e-5 7.928289808629458e-5 8.028015417787413e-5
      8.128995420687518e-5 8.231245595660669e-5 8.334781919504749e-5 8.439620569980997e-5
      8.545777928341845e-5 8.653270581890515e-5 8.762115326572818e-5 8.872329169601565e-5
      8.983929332113956e-5 9.096933251862437e-5 9.211358585939376e-5 9.327223213536016e-5
      9.444545238736168e-5 9.563342993344930e-5 9.683635039753190e-5 9.805440173837914e-5
      9.928777427899117e-5 1.005366607363370e-4 1.018012562514662e-4 1.030817584200010e-4
      1.043783673230103e-4 1.056912855582733e-4 1.070207182719355e-4 1.083668731905628e-4
      1.097299606536004e-4 1.111101936462375e-4 1.125077878326871e-4 1.139229615898846e-4
      1.153559360416085e-4 1.168069350930324e-4 1.182761854657101e-4 1.197639167330016e-4
      1.212703613559443e-4 1.227957547195752e-4 1.243403351697110e-4 1.259043440501895e-4
      1.274880257405800e-4 1.290916276943692e-4 1.307154004776244e-4 1.323595978081468e-4
      1.340244765951145e-4 1.357102969792249e-4 1.374173223733433e-4 1.391458195036601e-4
      1.408960584513687e-4 1.426683126948657e-4 1.444628591524820e-4 1.462799782257532e-4
      1.481199538432307e-4 1.499830735048489e-4 1.518696283268450e-4 1.537799130872483e-4
      1.557142262719394e-4 1.576728701212882e-4 1.596561506773816e-4 1.616643778318413e-4
      1.636978653742458e-4 1.657569310411612e-4 1.678418965657866e-4 1.699530877282276e-4
      1.720908344063983e-4 1.742554706275664e-4 1.764473346205459e-4 1.786667688685444e-4
      1.809141201626791e-4 1.831897396561619e-4 1.854939829191682e-4 1.878272099943965e-4
      1.901897854533234e-4 1.925820784531717e-4 1.950044627945896e-4 1.974573169800587e-4
      1.999410242730362e-4 2.024559727578393e-4 2.050025554002858e-4 2.075811701090946e-4
      2.101922197980598e-4 2.128361124490083e-4 2.155132611755450e-4 2.182240842876057e-4
      2.209690053568167e-4 2.237484532826794e-4 2.265628623595878e-4 2.294126723446851e-4
      2.322983285265802e-4 2.352202817949221e-4 2.381789887108538e-4 2.411749115783508e-4
      2.442085185164558e-4 2.472802835324251e-4 2.503906865957921e-4 2.535402137133635e-4
      2.567293570051591e-4 2.599586147813066e-4 2.632284916199037e-4 2.665394984458591e-4
      2.698921526107252e-4 2.732869779735367e-4 2.767245049826632e-4 2.802052707586937e-4
      2.837298191783622e-4 2.872987009595303e-4 2.909124737472370e-4 2.945717022008326e-4
      2.982769580822080e-4 3.020288203451329e-4 3.058278752257190e-4 3.096747163340210e-4
      3.135699447467881e-4 3.175141691013850e-4 3.215080056908917e-4 3.255520785604005e-4
      3.296470196045253e-4 3.337934686661353e-4 3.379920736363326e-4 3.422434905556858e-4
      3.465483837167380e-4 3.509074257678042e-4 3.553212978180731e-4 3.597906895440331e-4
      3.643162992972342e-4 3.688988342134076e-4 3.735390103229577e-4 3.782375526628413e-4
      3.829951953898591e-4 3.878126818953664e-4 3.926907649214305e-4 3.976302066784495e-4
      4.026317789642468e-4 4.076962632846680e-4 4.128244509756919e-4 4.180171433270785e-4
      4.232751517075727e-4 4.285992976916809e-4 4.339904131880457e-4 4.394493405694316e-4
      4.449769328043477e-4 4.505740535903274e-4 4.562415774888805e-4 4.619803900621471e-4
      4.677913880112672e-4 4.736754793164929e-4 4.796335833790622e-4 4.856666311648564e-4
      4.917755653498668e-4 4.979613404674883e-4 5.042249230576678e-4 5.105672918179288e-4
      5.169894377562935e-4 5.234923643461309e-4 5.300770876829509e-4 5.367446366431714e-4
      5.434960530448830e-4 5.503323918106339e-4 5.572547211322655e-4 5.642641226378176e-4
      5.713616915605357e-4 5.785485369100050e-4 5.858257816454323e-4 5.931945628511136e-4
      6.006560319141042e-4 6.082113547041255e-4 6.158617117557350e-4 6.236082984527863e-4
      6.314523252152124e-4 6.393950176881530e-4 6.474376169334662e-4 6.555813796236477e-4
      6.638275782381859e-4 6.721775012623916e-4 6.806324533887254e-4 6.891937557206589e-4
      6.978627459790985e-4 7.066407787114106e-4 7.155292255030686e-4 7.245294751919664e-4
      7.336429340854301e-4 7.428710261799520e-4 7.522151933836980e-4 7.616768957418039e-4
      7.712576116645131e-4 7.809588381581809e-4 7.907820910591829e-4 8.007289052707726e-4
      8.108008350029062e-4 8.209994540150964e-4 8.313263558623129e-4 8.417831541439782e-4
      8.523714827561008e-4 8.630929961465673e-4 8.739493695736581e-4 8.849422993678086e-4
      8.960735031966635e-4 9.073447203334693e-4 9.187577119288344e-4 9.303142612859155e-4
      9.420161741390615e-4 9.538652789359629e-4 9.658634271233527e-4 9.780124934362952e-4
      9.903143761911188e-4 1.002770997582032e-3 1.015384303981471e-3 1.028156266244223e-3
      1.041088880015375e-3 1.054184166042142e-3 1.067444170489608e-3 1.080870965260443e-3
      1.094466648318651e-3 1.108233344017368e-3 1.122173203430805e-3 1.136288404690358e-3
      1.150581153324940e-3 1.165053682605605e-3 1.179708253894497e-3 1.194547156998196e-3
      1.209572710525501e-3 1.224787262249718e-3 1.240193189475513e-3 1.255792899410356e-3
      1.271588829540662e-3 1.287583448012652e-3 1.303779254018001e-3 1.320178778184351e-3
      1.336784582970716e-3 1.353599263067881e-3 1.370625445803819e-3 1.387865791554222e-3
      1.405322994158191e-3 1.422999781339149e-3 1.440898915131057e-3 1.459023192309987e-3
      1.477375444831120e-3 1.495958540271250e-3 1.514775382276850e-3 1.533828911017765e-3
      1.553122103646627e-3 1.572657974764034e-3 1.592439576889595e-3 1.612470000938889e-3
      1.632752376706426e-3 1.653289873354684e-3 1.674085699909297e-3 1.695143105760474e-3
      1.716465381170723e-3 1.738055857788956e-3 1.759917909171070e-3 1.782054951307073e-3
      1.804470443154836e-3 1.827167887180567e-3 1.850150829906071e-3 1.873422862462909e-3
      1.896987621153516e-3 1.920848788019377e-3 1.945010091416366e-3 1.969475306597291e-3
      1.994248256301802e-3 2.019332811353689e-3 2.044732891265713e-3 2.070452464852040e-3
      2.096495550848369e-3 2.122866218539871e-3 2.149568588397025e-3 2.176606832719445e-3
      2.203985176287820e-3 2.231707897024034e-3 2.259779326659602e-3 2.288203851412518e-3
      2.316985912672602e-3 2.346130007695487e-3 2.375640690305314e-3 2.405522571606278e-3
      2.435780320703131e-3 2.466418665430724e-3 2.497442393092761e-3 2.528856351209804e-3
      2.560665448276723e-3 2.592874654529649e-3 2.625489002722587e-3 2.658513588913802e-3
      2.691953573262073e-3 2.725814180832988e-3 2.760100702415370e-3 2.794818495347970e-3
      2.829972984356575e-3 2.865569662401609e-3 2.901614091536440e-3 2.938111903776453e-3
      2.975068801979064e-3 3.012490560734812e-3 3.050383027269633e-3 3.088752122358519e-3
      3.127603841250637e-3 3.166944254606108e-3 3.206779509444562e-3 3.247115830105610e-3
      3.287959519221422e-3 3.329316958701516e-3 3.371194610729953e-3 3.413599018775068e-3
      3.456536808611888e-3 3.500014689357433e-3 3.544039454519024e-3 3.588617983055785e-3
      3.633757240453501e-3 3.679464279812976e-3 3.725746242952099e-3 3.772610361521775e-3
      3.820063958135868e-3 3.868114447515405e-3 3.916769337647106e-3 3.966036230956544e-3
      4.015922825496031e-3 4.066436916147457e-3 4.117586395840266e-3 4.169379256784719e-3
      4.221823591720712e-3 4.274927595182279e-3 4.328699564777996e-3 4.383147902487522e-3
      4.438281115974395e-3 4.494107819915393e-3 4.550636737346586e-3 4.607876701026327e-3
      4.665836654815406e-3 4.724525655074517e-3 4.783952872079356e-3 4.844127591453486e-3
      4.905059215619231e-3 4.966757265266840e-3 5.029231380842094e-3 5.092491324052655e-3
      5.156546979393353e-3 5.221408355690653e-3 5.287085587666573e-3 5.353588937522225e-3
      5.420928796541324e-3 5.489115686713850e-3 5.558160262380111e-3 5.628073311895541e-3
      5.698865759316357e-3 5.770548666106500e-3 5.843133232865995e-3 5.916630801081065e-3
      5.991052854896290e-3 6.066411022908982e-3 6.142717079986214e-3 6.219982949104649e-3
      6.298220703213530e-3 6.377442567121122e-3 6.457660919404836e-3 6.538888294345418e-3
      6.621137383885466e-3 6.704421039612546e-3 6.788752274767323e-3 6.874144266276858e-3
      6.960610356813551e-3 7.048164056879970e-3 7.136819046919872e-3 7.226589179455829e-3
      7.317488481253688e-3 7.409531155514291e-3 7.502731584092748e-3 7.597104329745640e-3
      7.692664138406490e-3 7.789425941489814e-3 7.887404858224206e-3 7.986616198014744e-3
      8.087075462835113e-3 8.188798349649840e-3 8.291800752866937e-3 8.396098766821471e-3
      8.501708688290318e-3 8.608647019038560e-3 8.716930468397965e-3 8.826575955877789e-3
      8.937600613808529e-3 9.050021790018864e-3 9.163857050546298e-3 9.279124182381894e-3
      9.395841196249515e-3 9.514026329420039e-3 9.633698048560969e-3 9.754875052621891e-3
      9.877576275756239e-3 1.000182089027976e-2 1.012762830966625e-2 1.025501819158095e-2
      1.038401044095207e-2 1.051462521308102e-2 1.064688291679170e-2 1.078080421761937e-2
      1.091641004103977e-2 1.105372157573867e-2 1.119276027692277e-2 1.133354786967198e-2
      1.147610635233411e-2 1.162045799996211e-2 1.176662536779461e-2 1.191463129478021e-2
      1.206449890714613e-2 1.221625162201171e-2 1.236991315104738e-2 1.252550750417968e-2
      1.268305899334286e-2 1.284259223627763e-2 1.300413216037777e-2 1.316770400658509e-2
      1.333333333333333e-2 1.350104602054180e-2 1.367086827365906e-2 1.384282662775768e-2
      1.401694795168033e-2 1.419325945223813e-2 1.437178867846176e-2 1.455256352590603e-2
      1.473561224100864e-2 1.492096342550375e-2 1.510864604089102e-2 1.529868941296097e-2
      1.549112323637711e-2 1.568597757931588e-2 1.588328288816479e-2 1.608306999227974e-2
      1.628537010880227e-2 1.649021484753714e-2 1.669763621589154e-2 1.690766662387627e-2
      1.712033888916989e-2 1.733568624224655e-2 1.755374233156830e-2 1.777454122884271e-2
      1.799811743434672e-2 1.822450588231728e-2 1.845374194641002e-2 1.868586144522632e-2
      1.892090064791011e-2 1.915889627981501e-2 1.939988552824268e-2 1.964390604825354e-2
      1.989099596855027e-2 2.014119389743565e-2 2.039453892884506e-2 2.065107064845511e-2
      2.091082913986892e-2 2.117385499087925e-2 2.144018929981045e-2 2.170987368194015e-2
      2.198295027600171e-2 2.225946175076857e-2 2.253945131172122e-2 2.282296270779820e-2
      2.311004023823195e-2 2.340072875947064e-2 2.369507369218718e-2 2.399312102837612e-2
      2.429491733854014e-2 2.460050977896668e-2 2.490994609909630e-2 2.522327464898360e-2
      2.554054438685196e-2 2.586180488674340e-2 2.618710634626465e-2 2.651649959443056e-2
      2.685003609960636e-2 2.718776797754954e-2 2.752974799955317e-2 2.787602960069143e-2
      2.822666688816900e-2 2.858171464977546e-2 2.894122836244590e-2 2.930526420092938e-2
      2.967387904656626e-2 3.004713049617611e-2 3.042507687105739e-2 3.080777722610006e-2
      3.119529135901323e-2 3.158767981966855e-2 3.198500391956131e-2 3.238732574139052e-2
      3.279470814875935e-2 3.320721479599776e-2 3.362491013810867e-2 3.404785944083902e-2
      3.447612879087796e-2 3.490978510618270e-2 3.534889614643477e-2 3.579353052362763e-2
      3.624375771278727e-2 3.669964806282810e-2 3.716127280754469e-2 3.762870407674266e-2
      3.810201490750887e-2 3.858127925562349e-2 3.906657200711606e-2 3.955796898996624e-2
      4.005554698595243e-2 4.055938374264888e-2 4.106955798557374e-2 4.158614943049060e-2
      4.210923879586359e-2 4.263890781547033e-2 4.317523925117285e-2 4.371831690584898e-2
      4.426822563648735e-2 4.482505136744574e-2 4.538888110387757e-2 4.595980294532636e-2
      4.653790609949121e-2 4.712328089616631e-2 4.771601880135441e-2 4.831621243155920e-2
      4.892395556825663e-2 4.953934317254805e-2 5.016247139999886e-2 5.079343761566216e-2
      5.143234040929298e-2 5.207927961075274e-2 5.273435630560770e-2 5.339767285092439e-2
      5.406933289126235e-2 5.474944137486948e-2 5.543810457008015e-2 5.613543008191947e-2
      5.684152686891762e-2 5.755650526013393e-2 5.828047697239676e-2 5.901355512775917e-2
      5.975585427117419e-2 6.050749038839344e-2 6.126858092408920e-2 6.203924480020625e-2
      6.281960243454327e-2 6.360977575956804e-2 6.440988824147045e-2 6.522006489945342e-2
      6.604043232526817e-2 6.687111870299417e-2 6.771225382906776e-2 6.856396913256390e-2
      6.942639769573134e-2 7.029967427478788e-2 7.118393532097573e-2 7.207931900188223e-2
      7.298596522302940e-2 7.390401564973366e-2 7.483361372924207e-2 7.577490471314597e-2
      7.672803568007641e-2 7.769315555868639e-2 7.867041515092024e-2 7.965996715557761e-2
      8.066196619217267e-2 8.167656882509316e-2 8.270393358806494e-2 8.374422100892222e-2
      8.479759363469107e-2 8.586421605698751e-2 8.694425493773483e-2 8.803787903520579e-2
      8.914525923039029e-2 9.026656855369698e-2 9.140198221198910e-2 9.255167761596049e-2
      9.371583440785734e-2 9.489463448954663e-2 9.608826205093955e-2 9.729690359877116e-2
      9.852074798574201e-2 9.975998644002782e-2 1.010148125951580e-1 1.022854225202724e-1
      1.035720147507570e-1 1.048747903192652e-1 1.061939527871304e-1 1.075297082761717e-1
      1.088822655009019e-1 1.102518358011396e-1 1.116386331750302e-1 1.130428743124851e-1
      1.144647786290386e-1 1.159045683001334e-1 1.173624682958348e-1 1.188387064159832e-1
      1.203335133257884e-1 1.218471225918710e-1 1.233797707187585e-1 1.249316971858391e-1
      1.265031444847803e-1 1.280943581574201e-1 1.297055868341318e-1 1.313370822726744e-1
      1.329890993975297e-1 1.346618963397340e-1 1.363557344772135e-1 1.380708784756226e-1
      1.398075963297009e-1 1.415661594051468e-1 1.433468424810181e-1 1.451499237926686e-1
      1.469756850752214e-1 1.488244116075915e-1 1.506963922570612e-1 1.525919195244150e-1
      1.545112895896454e-1 1.564548023582295e-1 1.584227615079920e-1 1.604154745365538e-1
      1.624332528093797e-1 1.644764116084302e-1 1.665452701814242e-1 1.686401517917230e-1
      1.707613837688406e-1 1.729092975595885e-1 1.750842287798671e-1 1.772865172671039e-1
      1.795165071333561e-1 1.817745468190768e-1 1.840609891475613e-1 1.863761913800753e-1
      1.887205152716774e-1 1.910943271277460e-1 1.934979978612123e-1 1.959319030505192e-1
      1.983964229983046e-1 2.008919427908239e-1 2.034188523581224e-1 2.059775465349603e-1
      2.085684251225089e-1 2.111918929508191e-1 2.138483599420757e-1 2.165382411746514e-1
      2.192619569479608e-1 2.220199328481352e-1 2.248125998145206e-1 2.276403942070115e-1
      2.305037578742355e-1 2.334031382225906e-1 2.363389882861552e-1 2.393117667974754e-1
      2.423219382592409e-1 2.453699730168676e-1 2.484563473319869e-1 2.515815434568651e-1
      2.547460497097556e-1 2.579503605511976e-1 2.611949766612803e-1 2.644804050178711e-1
      2.678071589758356e-1 2.711757583472484e-1 2.745867294826138e-1 2.780406053531125e-1
      2.815379256338750e-1 2.850792367883113e-1 2.886650921534943e-1 2.922960520266196e-1
      2.959726837525555e-1 2.996955618124884e-1 3.034652679136897e-1 3.072823910804080e-1
      3.111475277459030e-1 3.150612818456433e-1 3.190242649116687e-1 3.230370961681464e-1
      3.271004026281250e-1 3.312148191915046e-1 3.353809887442453e-1 3.395995622588146e-1
      3.438711988959075e-1 3.481965661074399e-1 3.525763397408373e-1 3.570112041446421e-1
      3.615018522754388e-1 3.660489858061347e-1 3.706533152355958e-1 3.753155599996620e-1
      3.800364485835642e-1 3.848167186357471e-1 3.896571170831326e-1 3.945584002478264e-1
      3.995213339652937e-1 4.045466937040262e-1 4.096352646867058e-1 4.147878420129022e-1
      4.200052307833062e-1 4.252882462255267e-1 4.306377138214764e-1 4.360544694363489e-1
      4.415393594492309e-1 4.470932408853462e-1 4.527169815499674e-1 4.584114601640163e-1
      4.641775665013607e-1 4.700162015278472e-1 4.759282775420788e-1 4.819147183179592e-1
      4.879764592490405e-1 4.941144474946746e-1 5.003296421280133e-1 5.066230142858640e-1
      5.129955473204285e-1 5.194482369529602e-1 5.259820914293407e-1 5.325981316776258e-1
      5.392973914675658e-1 5.460809175721307e-1 5.529497699310775e-1 5.599050218165601e-1
      5.669477600008372e-1 5.740790849260796e-1 5.813001108763135e-1 5.886119661515372e-1
      5.960157932440114e-1 6.035127490167835e-1 6.111040048844468e-1 6.187907469961730e-1
      6.265741764210579e-1 6.344555093357826e-1 6.424359772146508e-1 6.505168270220061e-1
      6.586993214070692e-1 6.669847389012375e-1 6.753743741178488e-1 6.838695379544760e-1
      6.924715577977532e-1 7.011817777307794e-1 7.100015587431426e-1 7.189322789435676e-1
      7.279753337752565e-1 7.371321362339264e-1 7.464041170885888e-1 7.557927251051183e-1
      7.652994272726165e-1 7.749257090326398e-1 7.846730745112994e-1 7.945430467542799e-1
      8.045371679648275e-1 8.146569997447116e-1 8.249041233382385e-1 8.352801398793190e-1
      8.457866706416446e-1 8.564253572920261e-1 8.671978621468936e-1 8.781058684320493e-1
      8.891510805456695e-1 9.003352243246153e-1 9.116600473141096e-1 9.231273190407819e-1
      9.347388312891715e-1 9.464963983816924e-1 9.584018574621210e-1 9.704570687826632e-1
      9.826639159946112e-1 9.950243064426788e-1 1.007540171463022e0 1.020213466685012e0
      1.033046172336813e0 1.046040293554789e0 1.059197860696818e0 1.072520929659537e0
      1.086011582199575e0 1.099671926258841e0 1.113504096293884e0 1.127510253609413e0
      1.141692586696009e0 1.156053311572065e0 1.170594672130066e0 1.185318940487178e0
      1.200228417340291e0 1.215325432325499e0 1.230612344382105e0 1.246091542121223e0
      1.261765444198989e0 1.277636499694492e0 1.293707188492446e0 1.309980021670668e0
      1.326457541892453e0 1.343142323803855e0 1.360036974435996e0 1.377144133612411e0
      1.394466474361523e0 1.412006703334320e0 1.429767561227261e0 1.447751823210528e0
      1.465962299361648e0 1.484401835104565e0 1.503073311654258e0 1.521979646466921e0
      1.541123793695836e0 1.560508744652959e0 1.580137528276311e0 1.600013211603274e0
      1.620138900249800e0 1.640517738895687e0 1.661152911775939e0 1.682047643178296e0
      1.703205197947054e0 1.724628881993186e0 1.746322042810915e0 1.768288070000755e0
      1.790530395799140e0 1.813052495614735e0 1.835857888571450e0 1.858950138058336e0
      1.882332852286360e0 1.906009684852187e0 1.929984335309082e0 1.954260549744949e0
      1.978842121367688e0 2.003732891097880e0 2.028936748168928e0 2.054457630734785e0
      2.080299526485268e0 2.106466473269166e0 2.132962559725156e0 2.159791925920645e0
      2.186958763998693e0 2.214467318833015e0 2.242321888691273e0 2.270526825906682e0
      2.299086537558058e0 2.328005486158459e0 2.357288190352433e0 2.386939225622089e0
      2.416963225002018e0 2.447364879803200e0 2.478148940346057e0 2.509320216702673e0
      2.540883579448400e0 2.572843960422888e0 2.605206353500679e0 2.637975815371543e0
      2.671157466330558e0 2.704756491078199e0 2.738778139530445e0 2.773227727639075e0
      2.808110638222330e0 2.843432321805948e0 2.879198297474855e0 2.915414153735522e0
      2.952085549389162e0 2.989218214415964e0 3.026817950870375e0 3.064890633787718e0
      3.103442212102164e0 3.142478709576248e0 3.182006225742132e0 3.222030936854624e0
      3.262559096856272e0 3.303597038354538e0 3.345151173611261e0 3.387227995544630e0
      3.429834078743666e0 3.472976080495557e0 3.516660741825857e0 3.560894888551762e0
      3.605685432348706e0 3.651039371830274e0 3.696963793641786e0 3.743465873567594e0
      3.790552877652279e0 3.838232163336045e0 3.886511180604269e0 3.935397473151631e0
      3.984898679560807e0 4.035022534495998e0 4.085776869911528e0 4.137169616275552e0
      4.189208803809256e0 4.241902563741574e0 4.295259129579687e0 4.349286838395577e0
      4.403994132128652e0 4.459389558904867e0 4.515481774372367e0 4.572279543053925e0
      4.629791739716468e0 4.688027350757717e0 4.746995475610388e0 4.806705328163970e0
      4.867166238204385e0 4.928387652871857e0 4.990379138136962e0 5.053150380295407e0
      5.116711187481497e0 5.181071491200651e0 5.246241347881286e0 5.312230940446080e0
      5.379050579903135e0 5.446710706957074e0 5.515221893640384e0 5.584594844965391e0
      5.654840400596861e0 5.725969536545786e0 5.797993366884381e0 5.870923145482652e0
      5.944770267766901e0 6.019546272500207e0 6.095262843585453e0 6.171931811890928e0
      6.249565157098893e0 6.328175009577506e0 6.407773652276125e0 6.488373522644630e0
      6.569987214576757e0 6.652627480377894e0 6.736307232757727e0 6.821039546847789e0
      6.906837662244560e0 6.993714985078139e0 7.081685090106948e0 7.170761722838899e0
      7.260958801679059e0 7.352290420104517e0 7.444770848866480e0 7.538414538220069e0
      7.633236120182292e0 7.729250410818219e0 7.826472412556118e0 7.924917316531577e0
      8.024600504961096e0 8.125537553545708e0 8.227744233904582e0 8.331236516039478e0
      8.436030570830054e0 8.542142772560545e0 8.649589701478387e0 8.758388146384798e0
      8.868555107258157e0 8.980107797910259e0 9.093063648675940e0 9.207440309136725e0
      9.323255650878478e0 9.440527770283991e0 9.559274991360532e0 9.679515868602952e0
      9.801269189892986e0 9.924553979434760e0 1.004938950072748e1 1.017579525957536e1
      1.030379100713533e1 1.043339674300342e1 1.056463271833950e1 1.069751943903172e1
      1.083207766890059e1 1.096832843294323e1 1.110629302061878e1 1.124599298917471e1
      1.138745016701535e1 1.153068665711256e1 1.167572484045928e1 1.182258737956679e1
      1.197129722200558e1 1.212187760399110e1 1.227435205401441e1 1.242874439651851e1
      1.258507875562106e1 1.274337955888370e1 1.290367154112902e1 1.306597974830539e1
      1.323032954140035e1 1.339674660040349e1 1.356525692831882e1 1.373588685522792e1
      1.390866304240405e1 1.408361248647794e1 1.426076252365619e1 1.444014083399248e1
      1.462177544571278e1 1.480569473959473e1 1.499192745340214e1 1.518050268637548e1
      1.537144990377852e1 1.556479894150247e1 1.576058001072789e1 1.595882370264511e1
      1.615956099323438e1 1.636282324810569e1 1.656864222739995e1 1.677705009075142e1
      1.698807940231272e1 1.720176313584318e1 1.741813467986084e1 1.763722784285970e1
      1.785907685859226e1 1.808371639141851e1 1.831118154172256e1 1.854150785139687e1
      1.877473130939594e1 1.901088835735963e1 1.925001589530707e1 1.949215128740266e1
      1.973733236779395e1 1.998559744652363e1 2.023698531551537e1 2.049153525463510e1
      2.074928703782875e1 2.101028093933678e1 2.127455773998733e1 2.154215873356820e1
      2.181312573327903e1 2.208750107826487e1 2.236532764023151e1 2.264664883014456e1
      2.293150860501232e1 2.321995147475409e1 2.351202250915520e1 2.380776734490889e1
      2.410723219274751e1 2.441046384466283e1 2.471750968121731e1 2.502841767894770e1
      2.534323641786107e1 2.566201508902596e1 2.598480350225833e1 2.631165209390438e1
      2.664261193472161e1 2.697773473785842e1 2.731707286693464e1 2.766067934422338e1
      2.800860785893570e1 2.836091277560998e1 2.871764914260614e1 2.907887270070733e1
      2.944463989182948e1 2.981500786784027e1 3.019003449948956e1 3.056977838545145e1
      3.095429886148076e1 3.134365600968424e1 3.173791066790835e1 3.213712443924565e1
      3.254135970166001e1 3.295067961773367e1 3.336514814453634e1 3.378483004361845e1
      3.420979089113071e1 3.464009708807001e1 3.507581587065515e1 3.551701532083243e1
      3.596376437691347e1 3.641613284434730e1 3.687419140662721e1 3.733801163633551e1
      3.780766600632684e1 3.828322790105189e1 3.876477162802437e1 3.925237242943121e1
      3.974610649388971e1 4.024605096835205e1 4.075228397015933e1 4.126488459924819e1
      4.178393295050967e1 4.230951012630475e1 4.284169824913650e1 4.338058047448171e1
      4.392624100378462e1 4.447876509761291e1 4.503823908898046e1 4.560475039683676e1
      4.617838753972606e1 4.675924014961920e1 4.734739898591804e1 4.794295594963745e1
      4.854600409776478e1 4.915663765779993e1 4.977495204247914e1 5.040104386468283e1