<?xml version="1.0" encoding="UTF-8"?>
<UPF version="2.0.1">
  <PP_INFO><![CDATA[
Generated using "atomic" code by A. Dal Corso  v.6.6
Author: ADC
Generation date:  9Nov2022
Pseudopotential type: PAW
Element: Ru
Functional:  SLA  PZ   NOGX NOGC
    Suggested minimum cutoff for wavefunctions:  52. Ry
    Suggested minimum cutoff for charge density: 355. Ry
    The Pseudo was generated with a Scalar-Relativistic Calculation
    Local Potential by smoothing AE potential with Bessel fncs, cutoff radius:   1.3000
    Valence configuration:
    nl pn  l   occ       Rcut    Rcut US       E pseu
    4S  1  0  2.00      1.000      1.300    -5.858062
    5S  2  0  2.00      1.000      1.300    -0.399062
    4P  2  1  6.00      0.900      1.400    -3.649087
    4D  3  2  6.00      1.100      1.700    -0.574911
    Generation configuration:
    4S  1  0  2.00      1.000      1.300    -5.858109
    5S  2  0  2.00      1.000      1.300    -0.399076
    4P  2  1  6.00      0.900      1.400    -3.649123
    5P  2  1  0.00      0.900      1.400    -2.500000
    4D  3  2  6.00      1.100      1.700    -0.574932
    4D  3  2  0.00      1.100      1.700     0.500000
    Pseudization used: troullier-martins
]]>
    <PP_INPUTFILE><![CDATA[
 &input
   title='Ru',
   zed=44.,
   rel=1,
   config='[Kr] 5s2 5p0 4d6',
   iswitch=3,
   dft='LDA'
 /
 &inputp
   lpaw=.true.,
   pseudotype=3,
   file_pseudopw='Ru.pz-spn-kjpaw_psl.1.0.0.UPF',
   author='ADC',
   lloc=-1,
   rcloc=1.3,
   which_augfun='PSQ',
   rmatch_augfun_nc=.true.,
   nlcc=.true.,
   new_core_ps=.true.,
   rcore=1.0,
   tm=.true.
 /
6
4S  1  0  2.00  0.00  1.00  1.30  0.0
5S  2  0  2.00  0.00  1.00  1.30  0.0
4P  2  1  6.00  0.00  0.90  1.40  0.0
5P  2  1  0.00 -2.50  0.90  1.40  0.0
4D  3  2  6.00  0.00  1.10  1.70  0.0
4D  3  2  0.00  0.50  1.10  1.70  0.0
]]></PP_INPUTFILE>
  </PP_INFO>
  <!--
 END OF HUMAN READABLE SECTION 
-->
  <PP_HEADER generated="Generated using &quot;atomic&quot; code by A. Dal Corso  v.6.6" author="ADC" date=" 9Nov2022" comment="" element="Ru" pseudo_type="PAW" relativistic="scalar" is_ultrasoft="true" is_paw="true" is_coulomb="false" has_so="false" has_wfc="true" has_gipaw="false" paw_as_gipaw="false" core_correction="true" functional=" SLA  PZ   NOGX NOGC" z_valence="1.600000000000e1" total_psenergy="-4.218170069211e2" wfc_cutoff="5.217380497031e1" rho_cutoff="3.553568833385e2" l_max="2" l_max_rho="4" l_local="-1" mesh_size="1233" number_of_wfc="4" number_of_proj="6"/>
  <PP_MESH dx="1.250000000000e-2" mesh="1233" xmin="-7.000000000000e0" rmax="1.000000000000e2" zmesh="4.400000000000e1">
    <PP_R>
      2.072459012623900e-5 2.098527337884141e-5 2.124923562310414e-5 2.151651810366487e-5
      2.178716258395500e-5 2.206121135272520e-5 2.233870723065315e-5 2.261969357703435e-5
      2.290421429655706e-5 2.319231384616260e-5 2.348403724199175e-5 2.377943006641861e-5
      2.407853847517296e-5 2.438140920455220e-5 2.468808957872404e-5 2.499862751712087e-5
      2.531307154192735e-5 2.563147078566210e-5 2.595387499885471e-5 2.628033455781949e-5
      2.661090047252669e-5 2.694562439457302e-5 2.728455862525230e-5 2.762775612372760e-5
      2.797527051530638e-5 2.832715609981931e-5 2.868346786010487e-5 2.904426147060055e-5
      2.940959330604200e-5 2.977952045027182e-5 3.015410070515890e-5 3.053339259963015e-5
      3.091745539881576e-5 3.130634911330948e-5 3.170013450854543e-5 3.209887311429276e-5
      3.250262723426988e-5 3.291145995587945e-5 3.332543516006598e-5 3.374461753129742e-5
      3.416907256767210e-5 3.459886659115299e-5 3.503406675793070e-5 3.547474106891664e-5
      3.592095838036857e-5 3.637278841464919e-5 3.683030177112061e-5 3.729356993717559e-5
      3.776266529940759e-5 3.823766115492139e-5 3.871863172278577e-5 3.920565215563050e-5
      3.969879855138908e-5 4.019814796518911e-5 4.070377842139250e-5 4.121576892578672e-5
      4.173419947792971e-5 4.225915108365002e-5 4.279070576770404e-5 4.332894658659264e-5
      4.387395764153885e-5 4.442582409162879e-5 4.498463216711811e-5 4.555046918290544e-5
      4.612342355217577e-5 4.670358480021497e-5 4.729104357839839e-5 4.788589167835532e-5
      4.848822204631155e-5 4.909812879761260e-5 4.971570723142920e-5 5.034105384564810e-5
      5.097426635195007e-5 5.161544369107743e-5 5.226468604829400e-5 5.292209486903895e-5
      5.358777287477801e-5 5.426182407905394e-5 5.494435380373872e-5 5.563546869549053e-5
      5.633527674241724e-5 5.704388729094996e-5 5.776141106292860e-5 5.848796017290226e-5
      5.922364814564769e-5 5.996858993390730e-5 6.072290193635115e-5 6.148670201576424e-5
      6.226010951746291e-5 6.304324528794293e-5 6.383623169376166e-5 6.463919264065834e-5
      6.545225359291461e-5 6.627554159295835e-5 6.710918528121470e-5 6.795331491620590e-5
      6.880806239490489e-5 6.967356127334416e-5 7.054994678748429e-5 7.143735587434501e-5
      7.233592719340152e-5 7.324580114825061e-5 7.416711990854883e-5 7.510002743222688e-5
      7.604466948798344e-5 7.700119367806163e-5 7.796974946131215e-5 7.895048817654667e-5
      7.994356306618473e-5 8.094912930019840e-5 8.196734400035750e-5 8.299836626478053e-5
      8.404235719279390e-5 8.509947991010410e-5 8.616989959428654e-5 8.725378350059463e-5
      8.835130098809387e-5 8.946262354612461e-5 9.058792482109752e-5 9.172738064362633e-5
      9.288116905600152e-5 9.404947034000992e-5 9.523246704510408e-5 9.643034401692592e-5
      9.764328842618951e-5 9.887148979792657e-5 1.001151400411001e-4 1.013744334785910e-4
      1.026495668775606e-4 1.039407394801971e-4 1.052481530348465e-4 1.065720118275366e-4
      1.079125227138972e-4 1.092698951514815e-4 1.106443412324946e-4 1.120360757169330e-4
      1.134453160661413e-4 1.148722824767912e-4 1.163171979152875e-4 1.177802881526074e-4
      1.192617817995769e-4 1.207619103425926e-4 1.222809081797914e-4 1.238190126576755e-4
      1.253764641081993e-4 1.269535058863205e-4 1.285503844080252e-4 1.301673491888315e-4
      1.318046528827759e-4 1.334625513218921e-4 1.351413035561839e-4 1.368411718941036e-4
      1.385624219435372e-4 1.403053226533068e-4 1.420701463551946e-4 1.438571688064942e-4
      1.456666692330996e-4 1.474989303731338e-4 1.493542385211275e-4 1.512328835727539e-4
      1.531351590701242e-4 1.550613622476552e-4 1.570117940785121e-4 1.589867593216366e-4
      1.609865665693665e-4 1.630115282956522e-4 1.650619609048839e-4 1.671381847813281e-4
      1.692405243391895e-4 1.713693080733017e-4 1.735248686104537e-4 1.757075427613652e-4
      1.779176715733130e-4 1.801556003834203e-4 1.824216788726173e-4 1.847162611202775e-4
      1.870397056595461e-4 1.893923755333593e-4 1.917746383511712e-4 1.941868663463942e-4
      1.966294364345599e-4 1.991027302722143e-4 2.016071343165513e-4 2.041430398857981e-4
      2.067108432203597e-4 2.093109455447304e-4 2.119437531301893e-4 2.146096773582775e-4
      2.173091347850796e-4 2.200425472063112e-4 2.228103417232234e-4 2.256129508093412e-4
      2.284508123780360e-4 2.313243698509516e-4 2.342340722272898e-4 2.371803741539660e-4
      2.401637359966513e-4 2.431846239117029e-4 2.462435099190034e-4 2.493408719757156e-4
      2.524771940509615e-4 2.556529662014469e-4 2.588686846480313e-4 2.621248518532640e-4
      2.654219765998967e-4 2.687605740703777e-4 2.721411659273550e-4 2.755642803951841e-4
      2.790304523424645e-4 2.825402233656158e-4 2.860941418734999e-4 2.896927631731152e-4
      2.933366495563607e-4 2.970263703878972e-4 3.007625021941123e-4 3.045456287532006e-4
      3.083763411863849e-4 3.122552380502760e-4 3.161829254304005e-4 3.201600170359031e-4
      3.241871342954377e-4 3.282649064542700e-4 3.323939706725960e-4 3.365749721251000e-4
      3.408085641017663e-4 3.450954081099533e-4 3.494361739777598e-4 3.538315399586839e-4
      3.582821928376020e-4 3.627888280380823e-4 3.673521497310427e-4 3.719728709447824e-4
      3.766517136763922e-4 3.813894090045672e-4 3.861866972038428e-4 3.910443278602587e-4
      3.959630599884889e-4 4.009436621504355e-4 4.059869125753190e-4 4.110935992812799e-4
      4.162645201985041e-4 4.215004832939065e-4 4.268023066973729e-4 4.321708188295968e-4
      4.376068585315211e-4 4.431112751954091e-4 4.486849288975633e-4 4.543286905327143e-4
      4.600434419500998e-4 4.658300760912559e-4 4.716894971295396e-4 4.776226206114098e-4
      4.836303735994813e-4 4.897136948173813e-4 4.958735347964266e-4 5.021108560241466e-4
      5.084266330946728e-4 5.148218528610221e-4 5.212975145892939e-4 5.278546301148086e-4
      5.344942240002071e-4 5.412173336955427e-4 5.480250097003835e-4 5.549183157279554e-4
      5.618983288713499e-4 5.689661397718215e-4 5.761228527892033e-4 5.833695861744643e-4
      5.907074722444397e-4 5.981376575587571e-4 6.056613030989882e-4 6.132795844500565e-4
      6.209936919839220e-4 6.288048310455814e-4 6.367142221414051e-4 6.447231011298431e-4
      6.528327194145326e-4 6.610443441398290e-4 6.693592583888020e-4 6.777787613837207e-4
      6.863041686890570e-4 6.949368124170476e-4 7.036780414358384e-4 7.125292215802475e-4
      7.214917358651807e-4 7.305669847017287e-4 7.397563861159871e-4 7.490613759706219e-4
      7.584834081892290e-4 7.680239549835127e-4 7.776845070833188e-4 7.874665739695688e-4
      7.973716841101146e-4 8.074013851985674e-4 8.175572443961288e-4 8.278408485764599e-4
      8.382538045736368e-4 8.487977394332185e-4 8.594743006664793e-4 8.702851565078332e-4
      8.812319961755001e-4 8.923165301354505e-4 9.035404903686663e-4 9.149056306417693e-4
      9.264137267810504e-4 9.380665769499444e-4 9.498660019299981e-4 9.618138454053710e-4
      9.739119742509134e-4 9.861622788238723e-4 9.985666732592595e-4 1.011127095768944e-3
      1.023845508944496e-3 1.036723900063850e-3 1.049764281401821e-3 1.062968690544522e-3
      1.076339190707748e-3 1.089877871059352e-3 1.103586847045681e-3 1.117468260722127e-3
      1.131524281087817e-3 1.145757104424531e-3 1.160168954639873e-3 1.174762083614759e-3
      1.189538771555282e-3 1.204501327348996e-3 1.219652088925685e-3 1.234993423622670e-3
      1.250527728554711e-3 1.266257430988555e-3 1.282184988722212e-3 1.298312890468984e-3
      1.314643656246329e-3 1.331179837769626e-3 1.347924018850880e-3 1.364878815802453e-3
      1.382046877845863e-3 1.399430887525733e-3 1.417033561128942e-3 1.434857649109054e-3
      1.452905936516081e-3 1.471181243431649e-3 1.489686425409644e-3 1.508424373922401e-3
      1.527398016812494e-3 1.546610318750232e-3 1.566064281696877e-3 1.585762945373720e-3
      1.605709387737037e-3 1.625906725459028e-3 1.646358114414806e-3 1.667066750175503e-3
      1.688035868507589e-3 1.709268745878465e-3 1.730768699968416e-3 1.752539090189016e-3
      1.774583318208026e-3 1.796904828480925e-3 1.819507108789104e-3 1.842393690784847e-3
      1.865568150543154e-3 1.889034109120513e-3 1.912795233120691e-3 1.936855235267656e-3
      1.961217874985693e-3 1.985886958986827e-3 2.010866341865621e-3 2.036159926701471e-3
      2.061771665668467e-3 2.087705560652929e-3 2.113965663878715e-3 2.140556078540379e-3
      2.167480959444310e-3 2.194744513657929e-3 2.222351001167047e-3 2.250304735541507e-3
      2.278610084609176e-3 2.307271471138434e-3 2.336293373529237e-3 2.365680326512878e-3
      2.395436921860553e-3 2.425567809100823e-3 2.456077696246121e-3 2.486971350528386e-3
      2.518253599143954e-3 2.549929330007812e-3 2.582003492517359e-3 2.614481098325737e-3
      2.647367222124932e-3 2.680667002438695e-3 2.714385642425446e-3 2.748528410691288e-3
      2.783100642113226e-3 2.818107738672757e-3 2.853555170299939e-3 2.889448475728082e-3
      2.925793263359187e-3 2.962595212140266e-3 2.999860072450688e-3 3.037593667000693e-3
      3.075801891741198e-3 3.114490716785056e-3 3.153666187339893e-3 3.193334424652686e-3
      3.233501626966220e-3 3.274174070487574e-3 3.315358110368805e-3 3.357060181699929e-3
      3.399286800514434e-3 3.442044564807424e-3 3.485340155566556e-3 3.529180337815978e-3
      3.573571961673356e-3 3.618521963420235e-3 3.664037366585839e-3 3.710125283044508e-3
      3.756792914126967e-3 3.804047551745512e-3 3.851896579533414e-3 3.900347473998611e-3
      3.949407805691935e-3 3.999085240390034e-3 4.049387540293148e-3 4.100322565237974e-3
      4.151898273925791e-3 4.204122725166007e-3 4.257004079135387e-3 4.310550598653076e-3
      4.364770650471686e-3 4.419672706584629e-3 4.475265345549865e-3 4.531557253830345e-3
      4.588557227151260e-3 4.646274171874411e-3 4.704717106389836e-3 4.763895162524950e-3
      4.823817586971434e-3 4.884493742730014e-3 4.945933110573478e-3 5.008145290528045e-3
      5.071140003373404e-3 5.134927092161611e-3 5.199516523755056e-3 5.264918390383838e-3
      5.331142911222678e-3 5.398200433987686e-3 5.466101436553231e-3 5.534856528589108e-3
      5.604476453218331e-3 5.674972088695767e-3 5.746354450107873e-3 5.818634691093866e-3
      5.891824105588446e-3 5.965934129586532e-3 6.040976342930153e-3 6.116962471117815e-3
      6.193904387136651e-3 6.271814113317573e-3 6.350703823213805e-3 6.430585843503023e-3
      6.511472655913410e-3 6.593376899173986e-3 6.676311370989385e-3 6.760289030039562e-3
      6.845322998004598e-3 6.931426561614984e-3 7.018613174727726e-3 7.106896460428497e-3
      7.196290213160305e-3 7.286808400878884e-3 7.378465167235221e-3 7.471274833785548e-3
      7.565251902229084e-3 7.660411056673966e-3 7.756767165931679e-3 7.854335285840329e-3
      7.953130661617168e-3 8.053168730240657e-3 8.154465122862542e-3 8.257035667250262e-3
      8.360896390260052e-3 8.466063520341205e-3 8.572553490071751e-3 8.680382938726117e-3
      8.789568714875033e-3 8.900127879018159e-3 9.012077706249841e-3 9.125435688958337e-3
      9.240219539559074e-3 9.356447193262245e-3 9.474136810875191e-3 9.593306781640125e-3
      9.713975726107426e-3 9.836162499045169e-3 9.959886192385220e-3 1.008516613820636e-2
      1.021202191175504e-2 1.034047333450395e-2 1.047054047724923e-2 1.060224366324656e-2
      1.073560347138670e-2 1.087064073941100e-2 1.100737656716733e-2 1.114583231990696e-2
      1.128602963162295e-2 1.142799040843048e-2 1.157173683198976e-2 1.171729136297192e-2
      1.186467674456855e-2 1.201391600604540e-2 1.216503246634069e-2 1.231804973770880e-2
      1.247299172940969e-2 1.262988265144481e-2 1.278874701833991e-2 1.294960965297552e-2
      1.311249569046561e-2 1.327743058208491e-2 1.344444009924580e-2 1.361355033752513e-2
      1.378478772074167e-2 1.395817900508495e-2 1.413375128329592e-2 1.431153198890023e-2
      1.449154890049486e-2 1.467383014608846e-2 1.485840420749653e-2 1.504529992479169e-2
      1.523454650080999e-2 1.542617350571398e-2 1.562021088161301e-2 1.581668894724187e-2
      1.601563840269804e-2 1.621709033423870e-2 1.642107621913802e-2 1.662762793060549e-2
      1.683677774276632e-2 1.704855833570414e-2 1.726300280056748e-2 1.748014464474025e-2
      1.770001779707739e-2 1.792265661320629e-2 1.814809588089494e-2 1.837637082548757e-2
      1.860751711540869e-2 1.884157086773637e-2 1.907856865384563e-2 1.931854750512269e-2
      1.956154491875133e-2 1.980759886357178e-2 2.005674778601353e-2 2.030903061610263e-2
      2.056448677354454e-2 2.082315617388359e-2 2.108507923473985e-2 2.135029688212445e-2
      2.161885055683441e-2 2.189078222092778e-2 2.216613436428030e-2 2.244495001122459e-2
      2.272727272727273e-2 2.301314662592352e-2 2.330261637555521e-2 2.359572720640513e-2
      2.389252491763693e-2 2.419305588449680e-2 2.449736706555981e-2 2.480550601006709e-2
      2.511752086535564e-2 2.543346038438139e-2 2.575337393333696e-2 2.607731149936528e-2
      2.640532369837008e-2 2.673746178292480e-2 2.707377765028088e-2 2.741432385047683e-2
      2.775915359454932e-2 2.810832076284740e-2 2.846187991345148e-2 2.881988629069819e-2
      2.918239583381230e-2 2.954946518564753e-2 2.992115170153686e-2 3.029751345825462e-2
      3.067860926309101e-2 3.106449866304083e-2 3.145524195410799e-2 3.185090019072668e-2
      3.225153519530132e-2 3.265720956786649e-2 3.306798669586821e-2 3.348393076406854e-2
      3.390510676457434e-2 3.433158050699258e-2 3.476341862871318e-2 3.520068860532121e-2
      3.564345876114021e-2 3.609179827990782e-2 3.654577721558599e-2 3.700546650330707e-2
      3.747093797045746e-2 3.794226434790098e-2 3.841951928134300e-2 3.890277734283785e-2
      3.939211404244083e-2 3.988760584000678e-2 4.038933015713725e-2 4.089736538927749e-2
      4.141179091796614e-2 4.193268712323866e-2 4.246013539618687e-2 4.299421815167659e-2
      4.353501884122492e-2 4.408262196603989e-2 4.463711309022383e-2 4.519857885414299e-2
      4.576710698796538e-2 4.634278632536854e-2 4.692570681742017e-2 4.751595954663312e-2
      4.811363674119715e-2 4.871883178938999e-2 4.933163925416916e-2 4.995215488794780e-2
      5.058047564755612e-2 5.121669970939111e-2 5.186092648475691e-2 5.251325663539783e-2
      5.317379208922710e-2 5.384263605625321e-2 5.451989304470677e-2 5.520566887737020e-2
      5.590007070811252e-2 5.660320703863255e-2 5.731518773541248e-2 5.803612404688470e-2
      5.876612862081469e-2 5.950531552190231e-2 6.025380024960471e-2 6.101169975618346e-2
      6.177913246497830e-2 6.255621828891154e-2 6.334307864922390e-2 6.413983649444771e-2
      6.494661631961741e-2 6.576354418572184e-2 6.659074773940238e-2 6.742835623289701e-2
      6.827650054423708e-2 6.913531319769694e-2 7.000492838450070e-2 7.088548198379080e-2
      7.177711158385838e-2 7.267995650364261e-2 7.359415781449917e-2 7.451985836224257e-2
      7.545720278946709e-2 7.640633755814614e-2 7.736741097251859e-2 7.834057320226084e-2
      7.932597630595094e-2 8.032377425482894e-2 8.133412295685410e-2 8.235718028106685e-2
      8.339310608225560e-2 8.444206222593419e-2 8.550421261363441e-2 8.657972320851504e-2
      8.766876206129483e-2 8.877149933651033e-2 8.988810733910404e-2 9.101876054134838e-2
      9.216363561010628e-2 9.332291143443662e-2 9.449676915354569e-2 9.568539218508999e-2
      9.688896625383686e-2 9.810767942068283e-2 9.934172211203993e-2 1.005912871495895e-1
      1.018565697804106e-1 1.031377677074888e-1 1.044350811206066e-1 1.057487127276243e-1
      1.070788677861533e-1 1.084257541356273e-1 1.097895822297792e-1 1.111705651695229e-1
      1.125689187362526e-1 1.139848614255583e-1 1.154186144813655e-1 1.168704019305066e-1
      1.183404506177239e-1 1.198289902411157e-1 1.213362533880268e-1 1.228624755713902e-1
      1.244078952665274e-1 1.259727539484097e-1 1.275572961293899e-1 1.291617693974079e-1
      1.307864244546757e-1 1.324315151568518e-1 1.340972985527049e-1 1.357840349242800e-1
      1.374919878275671e-1 1.392214241336815e-1 1.409726140705653e-1 1.427458312652083e-1
      1.445413527864052e-1 1.463594591880469e-1 1.482004345529571e-1 1.500645665372826e-1
      1.519521464154380e-1 1.538634691256199e-1 1.557988333158905e-1 1.577585413908417e-1
      1.597428995588477e-1 1.617522178799090e-1 1.637868103141015e-1 1.658469947706327e-1
      1.679330931575148e-1 1.700454314318656e-1 1.721843396508375e-1 1.743501520231916e-1
      1.765432069615177e-1 1.787638471351112e-1 1.810124195235177e-1 1.832892754707472e-1
      1.855947707401738e-1 1.879292655701244e-1 1.902931247301651e-1 1.926867175780996e-1
      1.951104181176795e-1 1.975646050570455e-1 2.000496618679003e-1 2.025659768454259e-1
      2.051139431689575e-1 2.076939589634165e-1 2.103064273615202e-1 2.129517565667713e-1
      2.156303599172392e-1 2.183426559501480e-1 2.210890684672702e-1 2.238700266011496e-1
      2.266859648821529e-1 2.295373233063648e-1 2.324245474043411e-1 2.353480883107204e-1
      2.383084028347175e-1 2.413059535315003e-1 2.443412087744626e-1 2.474146428284125e-1
      2.505267359236729e-1 2.536779743311219e-1 2.568688504381725e-1 2.600998628257073e-1
      2.633715163459864e-1 2.666843222015276e-1 2.700387980249863e-1 2.734354679600350e-1
      2.768748627432607e-1 2.803575197870969e-1 2.838839832637912e-1 2.874548041904368e-1
      2.910705405150691e-1 2.947317572038439e-1 2.984390263293188e-1 3.021929271598361e-1
      3.059940462500388e-1 3.098429775325174e-1 3.137403224106158e-1 3.176866898524011e-1
      3.216826964858138e-1 3.257289666950216e-1 3.298261327179755e-1 3.339748347452032e-1
      3.381757210198375e-1 3.424294479389043e-1 3.467366801558904e-1 3.510980906845915e-1
      3.555143610042766e-1 3.599861811661689e-1 3.645142499012653e-1 3.690992747295195e-1
      3.737419720703878e-1 3.784430673547760e-1 3.832032951383875e-1 3.880233992164968e-1
      3.929041327401741e-1 3.978462583339612e-1 4.028505482150374e-1 4.079177843138785e-1
      4.130487583964333e-1 4.182442721878425e-1 4.235051374977049e-1 4.288321763469291e-1
      4.342262210961742e-1 4.396881145759050e-1 4.452187102180913e-1 4.508188721895531e-1
      4.564894755269925e-1 4.622314062737188e-1 4.680455616180917e-1 4.739328500337145e-1
      4.798941914213779e-1 4.859305172528032e-1 4.920427707161835e-1 4.982319068635562e-1
      5.044988927600378e-1 5.108447076349233e-1 5.172703430346984e-1 5.237768029779683e-1
      5.303651041123346e-1 5.370362758732556e-1 5.437913606448897e-1 5.506314139229768e-1
      5.575575044797585e-1 5.645707145309738e-1 5.716721399049636e-1 5.788628902138885e-1
      5.861440890271150e-1 5.935168740467725e-1 6.009823972855183e-1 6.085418252465490e-1
      6.161963391058616e-1 6.239471348968204e-1 6.317954236970385e-1 6.397424318176058e-1
      6.477894009947117e-1 6.559375885836599e-1 6.641882677553395e-1 6.725427276951587e-1
      6.810022738044779e-1 6.895682279045899e-1 6.982419284432485e-1 7.070247307038104e-1
      7.159180070169993e-1 7.249231469753296e-1 7.340415576502437e-1 7.432746638119585e-1
      7.526239081520981e-1 7.620907515091129e-1 7.716766730965353e-1 7.813831707341188e-1
      7.912117610818648e-1 8.011639798770123e-1 8.112413821739979e-1 8.214455425874302e-1
      8.317780555381372e-1 8.422405355022862e-1 8.528346172636592e-1 8.635619561690863e-1
      8.744242283870939e-1 8.854231311698186e-1 8.965603831181944e-1 9.078377244504985e-1
      9.192569172742598e-1 9.308197458615865e-1 9.425280169279731e-1 9.543835599145911e-1
      9.663882272741542e-1 9.785438947603627e-1 9.908524617209888e-1 1.003315851394666e0
      1.015936011211383e0 1.028714913096790e0 1.041654553780307e0 1.054756955107113e0
      1.068024164354076e0 1.081458254549630e0 1.095061324797700e0 1.108835500605692e0
      1.122782934216595e0 1.136905804945291e0 1.151206319519060e0 1.165686712422402e0
      1.180349246246170e0 1.195196212041101e0 1.210229929675811e0 1.225452748199263e0
      1.240867046207824e0 1.256475232216920e0 1.272279745037367e0 1.288283054156452e0
      1.304487660123778e0 1.320896094942000e0 1.337510922462442e0 1.354334738785704e0
      1.371370172667320e0 1.388619885928486e0 1.406086573871997e0 1.423772965703384e0
      1.441681824957349e0 1.459815949929590e0 1.478178174114023e0 1.496771366645539e0
      1.515598432748300e0 1.534662314189685e0 1.553965989739960e0 1.573512475637696e0
      1.593304826061088e0 1.613346133605158e0 1.633639529764979e0 1.654188185424994e0
      1.674995311354451e0 1.696064158709112e0 1.717398019539243e0 1.739000227303998e0
      1.760874157392295e0 1.783023227650208e0 1.805450898915030e0 1.828160675556030e0
      1.851156106022003e0 1.874440783395753e0 1.898018345955484e0 1.921892477743318e0
      1.946066909140924e0 1.970545417452384e0 1.995331827494430e0 2.020430012194053e0
      2.045843893193677e0 2.071577441463919e0 2.097634677924043e0 2.124019674070267e0
      2.150736552611912e0 2.177789488115611e0 2.205182707657578e0 2.232920491484093e0
      2.261007173680317e0 2.289447142847480e0 2.318244842788630e0 2.347404773202974e0
      2.376931490388960e0 2.406829607956228e0 2.437103797546467e0 2.467758789563400e0
      2.498799373911900e0 2.530230400746417e0 2.562056781228848e0 2.594283488295887e0
      2.626915557436083e0 2.659958087476634e0 2.693416241380076e0 2.727295247051035e0
      2.761600398153067e0 2.796337054935830e0 2.831510645072624e0 2.867126664508458e0
      2.903190678318841e0 2.939708321579295e0 2.976685300245877e0 3.014127392046742e0
      3.052040447384898e0 3.090430390252389e0 3.129303219155880e0 3.168665008053981e0
      3.208521907306296e0 3.248880144634410e0 3.289746026095026e0 3.331125937065254e0
      3.373026343240377e0 3.415453791644113e0 3.458414911651582e0 3.501916416025203e0
      3.545965101963525e0 3.590567852163352e0 3.635731635895152e0 3.681463510092008e0
      3.727770620452318e0 3.774660202556275e0 3.822139582996487e0 3.870216180522753e0
      3.918897507201235e0 3.968191169588283e0 4.018104869918919e0 4.068646407310379e0
      4.119823678980713e0 4.171644681482727e0 4.224117511953508e0 4.277250369379557e0
      4.331051555877955e0 4.385529477993559e0 4.440692648012521e0 4.496549685292403e0
      4.553109317608905e0 4.610380382519657e0 4.668371828745077e0 4.727092717566605e0
      4.786552224242608e0 4.846759639441956e0 4.907724370695775e0 4.969455943867367e0
      5.031964004640617e0 5.095258320027211e0 5.159348779892684e0 5.224245398501792e0
      5.289958316083234e0 5.356497800414060e0 5.423874248424088e0 5.492098187820381e0
      5.561180278732281e0 5.631131315377053e0 5.701962227746468e0 5.773684083314711e0
      5.846308088767613e0 5.919845591753790e0 5.994308082657710e0 6.069707196395049e0
      6.146054714230750e0 6.223362565619786e0 6.301642830071227e0 6.380907739035671e0
      6.461169677816385e0 6.542441187504622e0 6.624734966939095e0 6.708063874690279e0
      6.792440931069558e0 6.877879320163633e0 6.964392391894649e0 7.051993664106055e0
      7.140696824674868e0 7.230515733650410e0 7.321464425419921e0 7.413557110901553e0
      7.506808179764747e0 7.601232202678751e0 7.696843933589263e0 7.793658312023736e0
      7.891690465425797e0 7.990955711518836e0 8.091469560699524e0 8.193247718461311e0
      8.296306087848384e0 8.400660771940665e0 8.506328076369822e0 8.613324511867171e0
      8.721666796843460e0 8.831371860001109e0 8.942456842979466e0 9.054939103033091e0
      9.168836215743980e0 9.284165977767740e0 9.400946409614290e0 9.519195758463734e0
      9.638932501017377e0 9.760175346384862e0 9.882943239007469e0 1.000725536161816e1
      1.013313113823904e1 1.026059023721626e1 1.038965257429339e1 1.052033831572317e1
      1.065266788141857e1 1.078666194814348e1 1.092234145274339e1 1.105972759541698e1
      1.119884184302856e1 1.133970593246232e1 1.148234187401885e1 1.162677195485419e1
      1.177301874246232e1 1.192110508820137e1 1.207105413086412e1 1.222288930029358e1
      1.237663432104385e1 1.253231321608725e1 1.268995031056787e1 1.284957023560239e1
      1.301119793212891e1 1.317485865480378e1 1.334057797594793e1 1.350838178954246e1
      1.367829631527460e1 1.385034810263473e1 1.402456403506463e1 1.420097133415820e1
      1.437959756391487e1 1.456047063504639e1 1.474361880933816e1 1.492907070406500e1
      1.511685529646277e1 1.530700192825613e1 1.549954031024308e1 1.569450052693760e1
      1.589191304127013e1 1.609180869934771e1 1.629421873527364e1 1.649917477602776e1
      1.670670884640850e1 1.691685337403652e1 1.712964119442185e1 1.734510555609436e1
      1.756328012579886e1 1.778419899375583e1 1.800789667898777e1 1.823440813471316e1
      1.846376875380782e1 1.869601437433506e1 1.893118128514566e1 1.916930623154781e1
      1.941042642104890e1 1.965457952916913e1 1.990180370532832e1 2.015213757880703e1
      2.040562026478224e1 2.066229137043937e1 2.092219100116093e1 2.118535976679292e1
      2.145183878799045e1 2.172166970264267e1 2.199489467237902e1 2.227155638915691e1
      2.255169808193242e1 2.283536352341504e1 2.312259703690708e1 2.341344350322941e1
      2.370794836773418e1 2.400615764740557e1 2.430811793805032e1 2.461387642157810e1
      2.492348087337406e1 2.523697966976375e1 2.555442179557183e1 2.587585685177639e1
      2.620133506325883e1 2.653090728665194e1 2.686462501828618e1 2.720254040223599e1
      2.754470623846769e1 2.789117599108925e1 2.824200379670446e1 2.859724447287174e1
      2.895695352666941e1 2.932118716336905e1 2.969000229521734e1 3.006345655032904e1
      3.044160828169135e1 3.082451657628155e1 3.121224126429983e1 3.160484292851739e1
      3.200238291374308e1 3.240492333640846e1 3.281252709427342e1 3.322525787625453e1
      3.364318017237606e1 3.406635928384709e1 3.449486133326484e1 3.492875327494619e1
      3.536810290538991e1 3.581297887386951e1 3.626345069316021e1 3.671958875040035e1
      3.718146431808925e1 3.764914956522421e1 3.812271756857644e1 3.860224232411005e1
      3.908779875854373e1 3.957946274105812e1 4.007731109515090e1 4.058142161064016e1
      4.109187305581962e1 4.160874518976619e1 4.213211877480224e1 4.266207558911538e1
      4.319869843953593e1 4.374207117447607e1 4.429227869703125e1 4.484940697824610e1
      4.541354307054820e1 4.598477512134957e1 4.656319238682040e1 4.714888524583531e1
      4.774194521409495e1 4.834246495842611e1 4.895053831126045e1 4.956626028529659e1
      5.018972708834570e1 5.082103613836409e1 5.146028607867539e1 5.210757679338315e1
      5.276300942297858e1 5.342668638014359e1 5.409871136575287e1 5.477918938507781e1
      5.546822676419320e1 5.616593116659149e1 5.687241161000512e1 5.758777848344055e1
      5.831214356442736e1 5.904562003648298e1 5.978832250679854e1 6.054036702414619e1
      6.130187109701160e1 6.207295371195563e1 6.285373535220547e1 6.364433801648099e1
      6.444488523805711e1 6.525550210406571e1 6.607631527504155e1 6.690745300471228e1
      6.774904516003928e1 6.860122324150916e1 6.946412040368067e1 7.033787147599124e1
      7.122261298382331e1 7.211848316983763e1 7.302562201557357e1 7.394417126332110e1
      7.487427443826923e1 7.581607687093110e1 7.676972571985306e1 7.773536999460811e1
      7.871316057907852e1 7.970325025503271e1 8.070579372599665e1 8.172094764142747e1
      8.274887062118998e1 8.378972328034077e1 8.484366825422580e1 8.591087022389116e1
      8.699149594181605e1 8.808571425796757e1 8.919369614618352e1 9.031561473088846e1
      9.145164531414348e1 9.260196540303864e1 9.376675473742836e1 9.494619531801559e1
      9.614047143479098e1 9.734976969582714e1 9.857427905643796e1 9.981419084870245e1
      1.010696988113604e2