<?xml version="1.0" encoding="UTF-8"?>
<UPF version="2.0.1">
  <PP_INFO><![CDATA[
Generated using "atomic" code by A. Dal Corso  v.6.6
Author: ADC
Generation date:  9Nov2022
Pseudopotential type: PAW
Element: Ta
Functional:  SLA  PZ   NOGX NOGC
    Suggested minimum cutoff for wavefunctions:  51. Ry
    Suggested minimum cutoff for charge density: 534. Ry
    The Pseudo was generated with a Scalar-Relativistic Calculation
    Local Potential by smoothing AE potential with Bessel fncs, cutoff radius:   1.5000
    Valence configuration:
    nl pn  l   occ       Rcut    Rcut US       E pseu
    5S  1  0  2.00      1.000      1.300    -5.379243
    6S  2  0  2.00      1.000      1.300    -0.413081
    5P  2  1  6.00      1.100      1.300    -2.907425
    5D  3  2  3.00      1.400      1.800    -0.278179
    4F  4  3 14.00      1.100      1.800    -1.832214
    Generation configuration:
    5S  1  0  2.00      1.000      1.300    -5.379296
    6S  2  0  2.00      1.000      1.300    -0.413095
    5P  2  1  6.00      1.100      1.300    -2.907454
    6P  3  1  0.00      1.100      1.300    -2.400000
    5D  3  2  3.00      1.400      1.800    -0.278196
    5D  3  2  0.00      1.400      1.800     0.050000
    4F  4  3 14.00      1.100      1.800    -1.832323
    4F  4  3  0.00      1.100      1.800     1.000000
    Pseudization used: troullier-martins
]]>
    <PP_INPUTFILE><![CDATA[
 &input
   title='Ta',
   zed=73.,
   rel=1,
   config='[Xe] 4f14 6s2 6p0 5d3',
   iswitch=3,
   dft='LDA'
 /
 &inputp
   lpaw=.true.,
   pseudotype=3,
   file_pseudopw='Ta.pz-spfn-kjpaw_psl.1.0.0.UPF',
   author='ADC',
   lloc=-1,
   rcloc=1.5,
   which_augfun='PSQ',
   rmatch_augfun_nc=.true.,
   nlcc=.true.,
   new_core_ps=.true.,
   rcore=1.2,
   tm=.true.
 /
8
5S  1  0  2.00  0.00  1.00  1.30  0.0
6S  2  0  2.00  0.00  1.00  1.30  0.0
5P  2  1  6.00  0.00  1.10  1.30  0.0
6P  3  1  0.00 -2.40  1.10  1.30  0.0
5D  3  2  3.00  0.00  1.40  1.80  0.0
5D  3  2  0.00  0.05  1.40  1.80  0.0
4F  4  3 14.00  0.00  1.10  1.80  0.0
4F  4  3  0.00  1.00  1.10  1.80  0.0
]]></PP_INPUTFILE>
  </PP_INFO>
  <!--
 END OF HUMAN READABLE SECTION 
-->
  <PP_HEADER generated="Generated using &quot;atomic&quot; code by A. Dal Corso  v.6.6" author="ADC" date=" 9Nov2022" comment="" element="Ta" pseudo_type="PAW" relativistic="scalar" is_ultrasoft="true" is_paw="true" is_coulomb="false" has_so="false" has_wfc="true" has_gipaw="false" paw_as_gipaw="false" core_correction="true" functional=" SLA  PZ   NOGX NOGC" z_valence="2.700000000000e1" total_psenergy="-1.210296522843e3" wfc_cutoff="5.131943455271e1" rho_cutoff="5.343674737923e2" l_max="3" l_max_rho="6" l_local="-1" mesh_size="1273" number_of_wfc="5" number_of_proj="8"/>
  <PP_MESH dx="1.250000000000e-2" mesh="1273" xmin="-7.000000000000e0" rmax="1.000000000000e2" zmesh="7.300000000000e1">
    <PP_R>
      1.249153377471940e-5 1.264865792697291e-5 1.280775845776140e-5 1.296886022686649e-5
      1.313198840676740e-5 1.329716848657410e-5 1.346442627601012e-5 1.363378790944536e-5
      1.380527984997959e-5 1.397892889357746e-5 1.415476217325530e-5 1.433280716332080e-5
      1.451309168366589e-5 1.469564390411365e-5 1.488049234881997e-5 1.506766590073039e-5
      1.525719380609319e-5 1.544910567902921e-5 1.564343150615901e-5 1.584020165128846e-5
      1.603944686015307e-5 1.624119826522209e-5 1.644548739056302e-5 1.665234615676733e-5
      1.686180688593810e-5 1.707390230674041e-5 1.728866555951527e-5 1.750613020145787e-5
      1.772633021186093e-5 1.794929999742411e-5 1.817507439763002e-5 1.840368869018804e-5
      1.863517859654649e-5 1.886958028747421e-5 1.910693038871231e-5 1.934726598669701e-5
      1.959062463435444e-5 1.983704435696843e-5 2.008656365812196e-5 2.033922152571352e-5
      2.059505743804894e-5 2.085411137001002e-5 2.111642379930069e-5 2.138203571277168e-5
      2.165098861282489e-5 2.192332452389814e-5 2.219908599903160e-5 2.247831612651679e-5
      2.276105853662924e-5 2.304735740844577e-5 2.333725747674759e-5 2.363080403901017e-5
      2.392804296248109e-5 2.422902069134686e-5 2.453378425399000e-5 2.484238127033719e-5
      2.515485995930010e-5 2.547126914630960e-5 2.579165827094489e-5 2.611607739465859e-5
      2.644457720859875e-5 2.677720904152969e-5 2.711402486785200e-5 2.745507731572383e-5
      2.780041967528403e-5 2.815010590697890e-5 2.850419064999356e-5 2.886272923078951e-5
      2.922577767174943e-5 2.959339269993089e-5 2.996563175592993e-5 3.034255300285640e-5
      3.072421533542196e-5 3.111067838914256e-5 3.150200254965665e-5 3.189824896216047e-5
      3.229947954096209e-5 3.270575697915580e-5 3.311714475841786e-5 3.353370715892580e-5
      3.395550926940217e-5 3.438261699728491e-5 3.481509707902546e-5 3.525301709051644e-5
      3.569644545765066e-5 3.614545146701262e-5 3.660010527670481e-5 3.706047792730995e-5
      3.752664135299134e-5 3.799866839273272e-5 3.847663280171936e-5 3.896060926286257e-5
      3.945067339846908e-5 3.994690178205709e-5 4.044937195032119e-5 4.095816241524740e-5
      4.147335267638103e-5 4.199502323324854e-5 4.252325559793573e-5 4.305813230782440e-5
      4.359973693848859e-5 4.414815411675378e-5 4.470346953391983e-5 4.526576995915043e-5
      4.583514325303112e-5 4.641167838129742e-5 4.699546542873609e-5 4.758659561326101e-5
      4.818516130016614e-5 4.879125601655794e-5 4.940497446596892e-5 5.002641254315538e-5
      5.065566734908127e-5 5.129283720609015e-5 5.193802167326860e-5 5.259132156200224e-5
      5.325283895172782e-5 5.392267720588334e-5 5.460094098805878e-5 5.528773627835013e-5
      5.598317038991873e-5 5.668735198575941e-5 5.740039109567917e-5 5.812239913348959e-5
      5.885348891441562e-5 5.959377467272286e-5 6.034337207956720e-5 6.110239826106851e-5
      6.187097181661187e-5 6.264921283737910e-5 6.343724292511295e-5 6.423518521111797e-5
      6.504316437549971e-5 6.586130666664637e-5 6.668973992095566e-5 6.752859358280894e-5
      6.837799872479749e-5 6.923808806820293e-5 7.010899600373493e-5 7.099085861253047e-5
      7.188381368741624e-5 7.278800075443939e-5 7.370356109466877e-5 7.463063776627020e-5
      7.556937562685988e-5 7.651992135613835e-5 7.748242347880971e-5 7.845703238778883e-5
      7.944390036770056e-5 8.044318161867469e-5 8.145503228043964e-5 8.247961045672000e-5
      8.351707623994022e-5 8.456759173623974e-5 8.563132109080220e-5 8.670843051350339e-5
      8.779908830488196e-5 8.890346488243681e-5 9.002173280725499e-5 9.115406681097497e-5
      9.230064382308861e-5 9.346164299858668e-5 9.463724574595251e-5 9.582763575550700e-5
      9.703299902811132e-5 9.825352390422875e-5 9.948940109335467e-5 1.007408237038142e-4
      1.020079872729361e-4 1.032910897976065e-4 1.045903317652050e-4 1.059059161849325e-4
      1.072380486195311e-4 1.085869372174040e-4 1.099527927451392e-4 1.113358286204412e-4
      1.127362609454799e-4 1.141543085406549e-4 1.155901929787881e-4 1.170441386197445e-4
      1.185163726454881e-4 1.200071250955812e-4 1.215166289031268e-4 1.230451199311660e-4
      1.245928370095319e-4 1.261600219721663e-4 1.277469196949086e-4 1.293537781337563e-4
      1.309808483636097e-4 1.326283846175027e-4 1.342966443263264e-4 1.359858881590549e-4
      1.376963800634738e-4 1.394283873074229e-4 1.411821805205582e-4 1.429580337366370e-4
      1.447562244363378e-4 1.465770335906155e-4 1.484207457046048e-4 1.502876488620752e-4
      1.521780347704426e-4 1.540921988063515e-4 1.560304400618271e-4 1.579930613910085e-4
      1.599803694574720e-4 1.619926747821454e-4 1.640302917918304e-4 1.660935388683301e-4
      1.681827383981978e-4 1.702982168231109e-4 1.724403046908767e-4 1.746093367070831e-4
      1.768056517873955e-4 1.790295931105135e-4 1.812815081717937e-4 1.835617488375456e-4
      1.858706714000128e-4 1.882086366330431e-4 1.905760098484605e-4 1.929731609531471e-4
      1.954004645068391e-4 1.978582997806559e-4 2.003470508163592e-4 2.028671064863616e-4
      2.054188605544893e-4 2.080027117375061e-4 2.106190637674168e-4 2.132683254545492e-4
      2.159509107514313e-4 2.186672388174743e-4 2.214177340844640e-4 2.242028263228826e-4
      2.270229507090583e-4 2.298785478931638e-4 2.327700640680696e-4 2.356979510390600e-4
      2.386626662944317e-4 2.416646730769748e-4 2.447044404563567e-4 2.477824434024153e-4
      2.508991628593724e-4 2.540550858209847e-4 2.572507054066357e-4 2.604865209383871e-4
      2.637630380189991e-4 2.670807686109314e-4 2.704402311163395e-4 2.738419504580744e-4
      2.772864581617040e-4 2.807742924385652e-4 2.843059982698595e-4 2.878821274918087e-4
      2.915032388818791e-4 2.951698982460927e-4 2.988826785074352e-4 3.026421597953759e-4
      3.064489295365151e-4 3.103035825463695e-4 3.142067211223142e-4 3.181589551376928e-4
      3.221609021371111e-4 3.262131874329299e-4 3.303164442029709e-4 3.344713135894525e-4
      3.386784447991698e-4 3.429384952049335e-4 3.472521304482870e-4 3.516200245435128e-4
      3.560428599829499e-4 3.605213278436345e-4 3.650561278952806e-4 3.696479687096230e-4
      3.742975677711311e-4 3.790056515891175e-4 3.837729558112579e-4 3.886002253385356e-4
      3.934882144416361e-4 3.984376868788011e-4 4.034494160151683e-4 4.085241849436125e-4
      4.136627866071027e-4 4.188660239226039e-4 4.241347099065328e-4 4.294696678017930e-4
      4.348717312064103e-4 4.403417442037817e-4 4.458805614945676e-4 4.514890485302379e-4
      4.571680816483025e-4 4.629185482092405e-4 4.687413467351512e-4 4.746373870501510e-4
      4.806075904225348e-4 4.866528897087255e-4 4.927742294990365e-4 4.989725662652634e-4
      5.052488685101373e-4 5.116041169186524e-4 5.180393045113025e-4 5.245554367992420e-4
      5.311535319413974e-4 5.378346209035590e-4 5.445997476194702e-4 5.514499691539432e-4
      5.583863558680305e-4 5.654099915862677e-4 5.725219737660263e-4 5.797234136689906e-4
      5.870154365347970e-4 5.943991817568545e-4 6.018758030603756e-4 6.094464686826510e-4
      6.171123615555867e-4 6.248746794905397e-4 6.327346353654811e-4 6.406934573145064e-4
      6.487523889197387e-4 6.569126894056367e-4 6.651756338357529e-4 6.735425133119668e-4
      6.820146351762184e-4 6.905933232147859e-4 6.992799178651290e-4 7.080757764253343e-4
      7.169822732661970e-4 7.260008000459699e-4 7.351327659278101e-4 7.443795977999656e-4
      7.537427404987296e-4 7.632236570341972e-4 7.728238288188678e-4 7.825447558991137e-4
      7.923879571895681e-4 8.023549707104596e-4 8.124473538279277e-4 8.226666834973692e-4
      8.330145565098352e-4 8.434925897415374e-4 8.541024204064856e-4 8.648457063123066e-4
      8.757241261192817e-4 8.867393796026379e-4 8.978931879181419e-4 9.091872938710361e-4
      9.206234621883526e-4 9.322034797946603e-4 9.439291560912682e-4 9.558023232389544e-4
      9.678248364442414e-4 9.799985742492769e-4 9.923254388253623e-4 1.004807356270166e-3
      1.017446276908684e-3 1.030244175597979e-3 1.043203052035758e-3 1.056324931072832e-3
      1.069611863029496e-3 1.083065924015900e-3 1.096689216256447e-3 1.110483868418263e-3
      1.124452035943819e-3 1.138595901387706e-3 1.152917674757677e-3 1.167419593859957e-3
      1.182103924648911e-3 1.196972961581101e-3 1.212029027973799e-3 1.227274476368010e-3
      1.242711688896062e-3 1.258343077653820e-3 1.274171085077582e-3 1.290198184325708e-3
      1.306426879665064e-3 1.322859706862313e-3 1.339499233580138e-3 1.356348059778443e-3
      1.373408818120599e-3 1.390684174384810e-3 1.408176827880636e-3 1.425889511870776e-3
      1.443824993998142e-3 1.461986076718304e-3 1.480375597737388e-3 1.498996430455466e-3
      1.517851484415534e-3 1.536943705758133e-3 1.556276077681695e-3 1.575851620908663e-3
      1.595673394157493e-3 1.615744494620583e-3 1.636068058448214e-3 1.656647261238585e-3
      1.677485318534000e-3 1.698585486323305e-3 1.719951061550648e-3 1.741585382630625e-3
      1.763491829969921e-3 1.785673826495503e-3 1.808134838189456e-3 1.830878374630555e-3
      1.853907989542640e-3 1.877227281349897e-3 1.900839893739114e-3 1.924749516229016e-3
      1.948959884746763e-3 1.973474782211689e-3 1.998298039126403e-3 2.023433534175299e-3
      2.048885194830618e-3 2.074656997966119e-3 2.100752970478473e-3 2.127177189916480e-3
      2.153933785118187e-3 2.181026936856032e-3 2.208460878490094e-3 2.236239896629567e-3
      2.264368331802555e-3 2.292850579134281e-3 2.321691089033838e-3 2.350894367889574e-3
      2.380464978773221e-3 2.410407542152897e-3 2.440726736615048e-3 2.471427299595491e-3
      2.502514028119655e-3 2.533991779552113e-3 2.565865472355576e-3 2.598140086859388e-3
      2.630820666037729e-3 2.663912316297585e-3 2.697420208276631e-3 2.731349577651167e-3
      2.765705725954184e-3 2.800494021403755e-3 2.835719899741819e-3 2.871388865083532e-3
      2.907506490777303e-3 2.944078420275626e-3 2.981110368016891e-3 3.018608120318274e-3
      3.056577536279860e-3 3.095024548700149e-3 3.133955165003048e-3 3.173375468176560e-3
      3.213291617723257e-3 3.253709850622715e-3 3.294636482306057e-3 3.336077907642751e-3
      3.378040601939816e-3 3.420531121953613e-3 3.463556106914335e-3 3.507122279563426e-3
      3.551236447203995e-3 3.595905502764485e-3 3.641136425875708e-3 3.686936283961423e-3
      3.733312233342639e-3 3.780271520355798e-3 3.827821482485034e-3 3.875969549508672e-3
      3.924723244660138e-3 3.974090185803498e-3 4.024078086623739e-3 4.074694757832065e-3
      4.125948108386332e-3 4.177846146726839e-3 4.230396982027671e-3 4.283608825463752e-3
      4.337489991493881e-3 4.392048899159875e-3 4.447294073402052e-3 4.503234146391289e-3
      4.559877858877803e-3 4.617234061556911e-3 4.675311716451972e-3 4.734119898314720e-3
      4.793667796043225e-3 4.853964714117655e-3 4.915020074054134e-3 4.976843415876870e-3
      5.039444399608799e-3 5.102832806781000e-3 5.167018541961056e-3 5.232011634300672e-3
      5.297822239102761e-3 5.364460639408205e-3 5.431937247602643e-3 5.500262607043380e-3
      5.569447393706840e-3 5.639502417856695e-3 5.710438625732992e-3 5.782267101262542e-3
      5.854999067790779e-3 5.928645889835446e-3 6.003219074862322e-3 6.078730275083286e-3
      6.155191289277009e-3 6.232614064632516e-3 6.311010698615974e-3 6.390393440860941e-3
      6.470774695082393e-3 6.552167021014852e-3 6.634583136374830e-3 6.718035918848032e-3
      6.802538408101505e-3 6.888103807821109e-3 6.974745487774648e-3 7.062476985900881e-3
      7.151312010424881e-3 7.241264441999968e-3 7.332348335876580e-3 7.424577924098454e-3
      7.517967617726393e-3 7.612532009090023e-3 7.708285874067893e-3 7.805244174396206e-3
      7.903422060006669e-3 8.002834871393645e-3 8.103498142011169e-3 8.205427600700080e-3
      8.308639174145663e-3 8.413148989366272e-3 8.518973376233154e-3 8.626128870022059e-3
      8.734632213996901e-3 8.844500362025919e-3 8.955750481230787e-3 9.068399954668960e-3
      9.182466384049858e-3 9.297967592485135e-3 9.414921627273593e-3 9.533346762721127e-3
      9.653261502996077e-3 9.774684585020587e-3 9.897634981398255e-3 1.002213190337865e-2
      1.014819480385915e-2 1.027584338042441e-2 1.040509757842423e-2 1.053597759409002e-2
      1.066850387769048e-2 1.080269713672708e-2 1.093857833916955e-2 1.107616871673223e-2
      1.121548976819154e-2 1.135656326274521e-2 1.149941124341380e-2 1.164405603048491e-2
      1.179052022500080e-2 1.193882671228984e-2 1.208899866554240e-2 1.224105954943172e-2
      1.239503312378027e-2 1.255094344727230e-2 1.270881488121306e-2 1.286867209333528e-2
      1.303054006165362e-2 1.319444407836743e-2 1.336040975381278e-2 1.352846302046414e-2
      1.369863013698630e-2 1.387093769233746e-2 1.404541260992369e-2 1.422208215180583e-2
      1.440097392295924e-2 1.458211587558711e-2 1.476553631348811e-2 1.495126389647879e-2
      1.513932764487189e-2 1.532975694401070e-2 1.552258154886063e-2 1.571783158865853e-2
      1.591553757162032e-2 1.611573038970810e-2 1.631844132345697e-2 1.652370204686275e-2
      1.673154463233110e-2 1.694200155568884e-2 1.715510570125843e-2 1.737089036699617e-2
      1.758938926969509e-2 1.781063655025330e-2 1.803466677900852e-2 1.826151496113977e-2
      1.849121654213704e-2 1.872380741333968e-2 1.895932391754454e-2 1.919780285468457e-2
      1.943928148757887e-2 1.968379754775514e-2 1.993138924134522e-2 2.018209525505501e-2
      2.043595476220919e-2 2.069300742887224e-2 2.095329342004630e-2 2.121685340594703e-2
      2.148372856835848e-2 2.175396060706772e-2 2.202759174638060e-2 2.230466474171933e-2
      2.258522288630313e-2 2.286931001791292e-2 2.315697052574098e-2 2.344824935732692e-2
      2.374319202558077e-2 2.404184461589450e-2 2.434425379334300e-2 2.465046680997547e-2
      2.496053151219876e-2 2.527449634825344e-2 2.559241037578387e-2 2.591432326950370e-2
      2.624028532895749e-2 2.657034748638021e-2 2.690456131465546e-2 2.724297903537386e-2
      2.758565352699284e-2 2.793263833309885e-2 2.828398767077380e-2 2.863975643906653e-2
      2.900000022757089e-2 2.936477532511177e-2 2.973413872854032e-2 3.010814815163977e-2
      3.048686203414341e-2 3.087033955086587e-2 3.125864062094937e-2 3.165182591722609e-2
      3.204995687569853e-2 3.245309570513893e-2 3.286130539680956e-2 3.327464973430532e-2
      3.369319330351987e-2 3.411700150273743e-2 3.454614055285137e-2 3.498067750771133e-2
      3.542068026460065e-2 3.586621757484523e-2 3.631735905455627e-2 3.677417519550784e-2
      3.723673737615130e-2 3.770511787276859e-2 3.817938987076509e-2 3.865962747610547e-2
      3.914590572689268e-2 3.963830060509261e-2 4.013688904840692e-2 4.064174896229408e-2
      4.115295923214290e-2 4.167059973559816e-2 4.219475135504152e-2 4.272549599023007e-2
      4.326291657109272e-2 4.380709707068870e-2 4.435812251832826e-2 4.491607901285854e-2
      4.548105373611714e-2 4.605313496655384e-2 4.663241209302490e-2 4.721897562875996e-2
      4.781291722550468e-2 4.841432968784210e-2 4.902330698769289e-2 4.963994427899920e-2
      5.026433791259242e-2 5.089658545124800e-2 5.153678568493034e-2 5.218503864622825e-2
      5.284144562598593e-2 5.350610918912952e-2 5.417913319069284e-2 5.486062279204560e-2
      5.555068447732435e-2 5.624942607007139e-2 5.695695675008235e-2 5.767338707046520e-2
      5.839882897491537e-2 5.913339581520609e-2 5.987720236890077e-2 6.063036485728681e-2
      6.139300096353512e-2 6.216522985108915e-2 6.294717218228342e-2 6.373895013719820e-2
      6.454068743274993e-2 6.535250934202196e-2 6.617454271383950e-2 6.700691599258912e-2
      6.784975923828922e-2 6.870320414691182e-2 6.956738407096003e-2 7.044243404030537e-2
      7.132849078328563e-2 7.222569274806973e-2 7.313418012429013e-2 7.405409486494749e-2
      7.498558070859184e-2 7.592878320178115e-2 7.688384972182404e-2 7.785092949980750e-2
      7.883017364391412e-2 7.982173516303397e-2 8.082576899067149e-2 8.184243200915509e-2
      8.287188307415001e-2 8.391428303947926e-2 8.496979478225851e-2 8.603858322834474e-2
      8.712081537810723e-2 8.821666033252143e-2 8.932628931959059e-2 9.044987572110184e-2
      9.158759509971606e-2 9.273962522640101e-2 9.390614610820798e-2 9.508734001639775e-2
      9.628339151492193e-2 9.749448748926024e-2 9.872081717562281e-2 9.996257219051831e-2
      1.012199465606938e-1 1.024931367534532e-1 1.037823417073541e-1 1.050877628632935e-1
      1.064096041959833e-1 1.077480722458204e-1 1.091033761511614e-1 1.104757276809983e-1
      1.118653412680499e-1 1.132724340422668e-1 1.146972258647571e-1 1.161399393621422e-1
      1.176007999613411e-1 1.190800359247945e-1 1.205778783861317e-1 1.220945613862841e-1
      1.236303219100566e-1 1.251853999231552e-1 1.267600384096834e-1 1.283544834101087e-1
      1.299689840597058e-1 1.316037926274864e-1 1.332591645556149e-1 1.349353584993230e-1
      1.366326363673250e-1 1.383512633627404e-1 1.400915080245344e-1 1.418536422694753e-1
      1.436379414346242e-1 1.454446843203563e-1 1.472741532339227e-1 1.491266340335637e-1
      1.510024161731727e-1 1.529017927475256e-1 1.548250605380766e-1 1.567725200593304e-1
      1.587444756058000e-1 1.607412352995509e-1 1.627631111383479e-1 1.648104190444046e-1
      1.668834789137462e-1 1.689826146661954e-1 1.711081542959838e-1 1.732604299230031e-1
      1.754397778446992e-1 1.776465385886183e-1 1.798810569656168e-1 1.821436821237368e-1
      1.844347676027631e-1 1.867546713894625e-1 1.891037559735219e-1 1.914823884041869e-1
      1.938909403476138e-1 1.963297881449445e-1 1.987993128711086e-1 2.012999003943690e-1
      2.038319414366144e-1 2.063958316344081e-1 2.089919716008107e-1 2.116207669879730e-1
      2.142826285505229e-1 2.169779722097457e-1 2.197072191185709e-1 2.224707957273816e-1
      2.252691338506447e-1 2.281026707343855e-1 2.309718491245075e-1 2.338771173359707e-1
      2.368189293228447e-1 2.397977447492369e-1 2.428140290611184e-1 2.458682535590501e-1
      2.489608954718229e-1 2.520924380310284e-1 2.552633705465619e-1 2.584741884830806e-1
      2.617253935374201e-1 2.650174937169838e-1 2.683510034191236e-1 2.717264435115114e-1
      2.751443414135297e-1 2.786052311786798e-1 2.821096535780279e-1 2.856581561847046e-1
      2.892512934594606e-1 2.928896268373061e-1 2.965737248152339e-1 3.003041630410475e-1
      3.040815244033105e-1 3.079063991224195e-1 3.117793848428319e-1 3.157010867264466e-1
      3.196721175471606e-1 3.236930977866199e-1 3.277646557311665e-1 3.318874275700134e-1
      3.360620574946489e-1 3.402891977994911e-1 3.445695089838137e-1 3.489036598549466e-1
      3.532923276327817e-1 3.577361980555889e-1 3.622359654871617e-1 3.667923330253172e-1
      3.714060126117522e-1 3.760777251432890e-1 3.808082005845163e-1 3.855981780818446e-1
      3.904484060790043e-1 3.953596424339868e-1 4.003326545374650e-1 4.053682194326983e-1
      4.104671239369456e-1 4.156301647644104e-1 4.208581486507251e-1 4.261518924790090e-1
      4.315122234075064e-1 4.369399789988288e-1 4.424360073508319e-1 4.480011672291257e-1
      4.536363282012646e-1 4.593423707726160e-1 4.651201865239391e-1 4.709706782507018e-1
      4.768947601041376e-1 4.828933577340896e-1 4.889674084336426e-1 4.951178612855744e-1
      5.013456773106580e-1 5.076518296178164e-1 5.140373035561781e-1 5.205030968690384e-1
      5.270502198497553e-1 5.336796954996167e-1 5.403925596876789e-1 5.471898613126292e-1
      5.540726624666772e-1 5.610420386015042e-1 5.680990786963125e-1 5.752448854279727e-1
      5.824805753433258e-1 5.898072790336433e-1 5.972261413112809e-1 6.047383213885656e-1
      6.123449930589159e-1 6.200473448802571e-1 6.278465803607331e-1 6.357439181467531e-1
      6.437405922134158e-1 6.518378520573110e-1 6.600369628917646e-1 6.683392058445269e-1
      6.767458781579477e-1 6.852582933916823e-1 6.938777816279269e-1 7.026056896792562e-1
      7.114433812990615e-1 7.203922373946363e-1 7.294536562429547e-1 7.386290537091448e-1
      7.479198634677293e-1 7.573275372266368e-1 7.668535449540295e-1 7.764993751079983e-1
      7.862665348691266e-1 7.961565503759998e-1 8.061709669636638e-1 8.163113494050821e-1
      8.265792821556445e-1 8.369763696007311e-1 8.475042363064095e-1 8.581645272732729e-1
      8.689589081934704e-1 8.798890657109856e-1 8.909567076851646e-1 9.021635634575848e-1
      9.135113841222632e-1 9.250019427992623e-1 9.366370349117565e-1 9.484184784665569e-1
      9.603481143381899e-1 9.724278065565334e-1 9.846594425980694e-1 9.970449336808183e-1
      1.009586215062957e0 1.022285246345218e0 1.035144011777078e0 1.048164520566793e0
      1.061348807195356e0 1.074698931734372e0 1.088216980167964e0 1.101905064718703e0
      1.115765324177646e0 1.129799924238536e0 1.144011057836182e0 1.158400945489123e0
      1.172971835646584e0 1.187726005039793e0 1.202665759037739e0 1.217793432007374e0
      1.233111387678381e0 1.248622019512499e0 1.264327751077505e0 1.280231036425914e0
      1.296334360478413e0 1.312640239412149e0 1.329151221053883e0 1.345869885278083e0
      1.362798844410054e0 1.379940743634098e0 1.397298261406845e0 1.414874109875765e0
      1.432671035302935e0 1.450691818494165e0 1.468939275233487e0 1.487416256723145e0
      1.506125650029090e0 1.525070378532087e0 1.544253402384511e0 1.563677718972863e0
      1.583346363386132e0 1.603262408890026e0 1.623428967407169e0 1.643849190003364e0
      1.664526267379931e0 1.685463430372281e0 1.706663950454732e0 1.728131140251674e0
      1.749868354055192e0 1.771878988349164e0 1.794166482339981e0 1.816734318493927e0
      1.839586023081308e0 1.862725166727467e0 1.886155364970667e0 1.909880278827057e0
      1.933903615362699e0 1.958229128272795e0 1.982860618468235e0 2.007801934669468e0
      2.033056974007899e0 2.058629682634808e0 2.084524056337940e0 2.110744141165875e0
      2.137294034060207e0 2.164177883495719e0 2.191399890128585e0 2.218964307452717e0
      2.246875442464411e0 2.275137656335289e0 2.303755365093773e0 2.332733040315084e0
      2.362075209819922e0 2.391786458381979e0 2.421871428444280e0 2.452334820844612e0
      2.483181395550019e0 2.514415972400548e0 2.546043431862388e0 2.578068715790418e0
      2.610496828200411e0 2.643332836050912e0 2.676581870034945e0 2.710249125381722e0
      2.744339862668381e0 2.778859408641985e0 2.813813157051827e0 2.849206569492201e0
      2.885045176255818e0 2.921334577197891e0 2.958080442611152e0 2.995288514111838e0
      3.032964605536811e0 3.071114603852018e0 3.109744470072303e0 3.148860240192861e0
      3.188468026132360e0 3.228574016687926e0 3.269184478502190e0 3.310305757042422e0
      3.351944277592060e0 3.394106546254662e0 3.436799150970474e0 3.480028762545853e0
      3.523802135695548e0 3.568126110098175e0 3.613007611464921e0 3.658453652621673e0
      3.704471334604836e0 3.751067847770829e0 3.798250472919643e0 3.846026582432459e0
      3.894403641423574e0 3.943389208906895e0 3.992990938976989e0 4.043216582005100e0
      4.094073985850144e0 4.145571097084930e0 4.197715962237871e0 4.250516729050225e0
      4.303981647749236e0 4.358119072337233e0 4.412937461896939e0 4.468445381913265e0
      4.524651505611629e0 4.581564615313220e0 4.639193603807227e0 4.697547475740334e0
      4.756635349023768e0 4.816466456257928e0 4.877050146175056e0 4.938395885099968e0
      5.000513258429163e0 5.063411972128620e0 5.127101854250304e0 5.191592856467884e0
      5.256895055631674e0 5.323018655343134e0 5.389973987549267e0 5.457771514156931e0
      5.526421828667604e0 5.595935657832610e0 5.666323863329161e0 5.737597443457593e0
      5.809767534859788e0 5.882845414259369e0 5.956842500223680e0 6.031770354947930e0
      6.107640686061885e0 6.184465348459117e0 6.262256346149438e0 6.341025834134514e0
      6.420786120307082e0 6.501549667374150e0 6.583329094804238e0 6.666137180799277e0
      6.749986864291189e0 6.834891246963590e0 6.920863595299034e0 7.007917342651838e0
      7.096066091347151e0 7.185323614806308e0 7.275703859698919e0 7.367220948122156e0
      7.459889179807252e0 7.553723034353956e0 7.648737173492959e0 7.744946443376784e0
      7.842365876899614e0 7.941010696046115e0 8.040896314269984e0 8.142038338902305e0
      8.244452573590168e0 8.348155020766139e0 8.453161884148543e0 8.559489571273437e0
      8.667154696058276e0 8.776174081397819e0 8.886564761792863e0 8.998343986011777e0
      9.111529219785778e0 9.226138148537938e0 9.342188680146513e0 9.459698947743210e0
      9.578687312546380e0 9.699172366730128e0 9.821172936329313e0 9.944708084181114e0
      1.006979711290375e1 1.019645956791243e1 1.032471524047344e1 1.045458417079660e1
      1.058608665116644e1 1.071924322911310e1 1.085407471062277e1 1.099060216338875e1
      1.112884692010334e1 1.126883058179099e1 1.141057502118368e1 1.155410238613841e1
      1.169943510309797e1 1.184659588059509e1 1.199560771280063e1 1.214649388311656e1
      1.229927796781395e1 1.245398383971688e1 1.261063567193262e1 1.276925794162861e1
      1.292987543385726e1 1.309251324542846e1 1.325719678883119e1 1.342395179620417e1
      1.359280432335653e1 1.376378075383920e1 1.393690780306728e1 1.411221252249444e1
      1.428972230383978e1 1.446946488336774e1 1.465146834622211e1 1.483576113081419e1
      1.502237203326656e1 1.521133021191240e1 1.540266519185152e1 1.559640686956385e1
      1.579258551758067e1 1.599123178921487e1 1.619237672335057e1 1.639605174929293e1
      1.660228869167916e1 1.681111977545105e1 1.702257763089035e1 1.723669529871721e1
      1.745350623525280e1 1.767304431764710e1 1.789534384917209e1 1.812043956458188e1
      1.834836663553999e1 1.857916067611491e1 1.881285774834510e1 1.904949436787349e1
      1.928910750965336e1 1.953173461372565e1 1.977741359106891e1 2.002618282952328e1
      2.027808119978831e1 2.053314806149688e1 2.079142326936511e1 2.105294717941962e1
      2.131776065530351e1 2.158590507466107e1 2.185742233560342e1 2.213235486325500e1
      2.241074561638257e1 2.269263809410774e1 2.297807634270361e1 2.326710496247729e1
      2.355976911473869e1 2.385611452885695e1 2.415618750940602e1 2.446003494339955e1
      2.476770430761730e1 2.507924367602346e1 2.539470172727806e1 2.571412775234352e1
      2.603757166218604e1 2.636508399557462e1 2.669671592697774e1 2.703251927455929e1
      2.737254650827563e1 2.771685075807372e1 2.806548582219312e1 2.841850617557196e1
      2.877596697835860e1 2.913792408453081e1 2.950443405062274e1 2.987555414456232e1
      3.025134235461933e1 3.063185739846602e1 3.101715873235229e1 3.140730656039532e1
      3.180236184398709e1 3.220238631131942e1 3.260744246702913e1 3.301759360196471e1
      3.343290380307536e1 3.385343796342500e1 3.427926179233185e1 3.471044182563540e1
      3.514704543609319e1 3.558914084390755e1 3.603679712738543e1 3.649008423373195e1
      3.694907298997959e1 3.741383511405544e1 3.788444322598685e1 3.836097085924881e1
      3.884349247225360e1 3.933208345998482e1 3.982682016577847e1 4.032777989325124e1
      4.083504091837984e1 4.134868250173155e1 4.186878490084863e1 4.239542938278924e1
      4.292869823682500e1 4.346867478729940e1 4.401544340664709e1 4.456908952857710e1
      4.512969966142254e1 4.569736140165710e1 4.627216344758267e1 4.685419561318845e1
      4.744354884218431e1 4.804031522221150e1 4.864458799923086e1 4.925646159209327e1
      4.987603160729258e1 5.050339485390403e1 5.113864935871145e1 5.178189438152344e1