<?xml version="1.0" encoding="UTF-8"?>
<UPF version="2.0.1">
  <PP_INFO><![CDATA[
Generated using "atomic" code by A. Dal Corso  v.6.6
Author: ADC
Generation date:  9Nov2022
Pseudopotential type: PAW
Element: Tc
Functional:  SLA  PZ   NOGX NOGC
    Suggested minimum cutoff for wavefunctions:  57. Ry
    Suggested minimum cutoff for charge density: 300. Ry
    The Pseudo was generated with a Scalar-Relativistic Calculation
    Local Potential by smoothing AE potential with Bessel fncs, cutoff radius:   1.3000
    Valence configuration:
    nl pn  l   occ       Rcut    Rcut US       E pseu
    4S  1  0  2.00      1.100      1.300    -5.393884
    5S  2  0  2.00      1.100      1.300    -0.387054
    4P  2  1  6.00      1.000      1.400    -3.336623
    5P  3  1  0.00      1.000      1.400    -0.112119
    4D  3  2  5.00      1.500      1.700    -0.500625
    Generation configuration:
    4S  1  0  2.00      1.100      1.300    -5.393925
    5S  2  0  2.00      1.100      1.300    -0.387067
    4P  2  1  6.00      1.000      1.400    -3.336654
    5P  3  1  0.00      1.000      1.400    -0.112124
    4D  3  2  5.00      1.500      1.700    -0.500644
    4D  3  2  0.00      1.500      1.700     1.000000
    Pseudization used: troullier-martins
]]>
    <PP_INPUTFILE><![CDATA[
 &input
   title='Tc',
   zed=43.,
   rel=1,
   config='[Kr] 5s2 5p0 4d5',
   iswitch=3,
   dft='LDA'
 /
 &inputp
   lpaw=.true.,
   pseudotype=3,
   file_pseudopw='Tc.pz-spn-kjpaw_psl.1.0.0.UPF',
   author='ADC',
   lloc=-1,
   rcloc=1.3,
   which_augfun='PSQ',
   rmatch_augfun_nc=.true.,
   nlcc=.true.,
   new_core_ps=.true.,
   rcore=1.2,
   tm=.true.
 /
6
4S  1  0  2.00  0.00  1.10  1.30  0.0
5S  2  0  2.00  0.00  1.10  1.30  0.0
4P  2  1  6.00  0.00  1.00  1.40  0.0
5P  3  1  0.00  0.00  1.00  1.40  0.0
4D  3  2  5.00  0.00  1.50  1.70  0.0
4D  3  2  0.00  1.00  1.50  1.70  0.0
]]></PP_INPUTFILE>
  </PP_INFO>
  <!--
 END OF HUMAN READABLE SECTION 
-->
  <PP_HEADER generated="Generated using &quot;atomic&quot; code by A. Dal Corso  v.6.6" author="ADC" date=" 9Nov2022" comment="" element="Tc" pseudo_type="PAW" relativistic="scalar" is_ultrasoft="true" is_paw="true" is_coulomb="false" has_so="false" has_wfc="true" has_gipaw="false" paw_as_gipaw="false" core_correction="true" functional=" SLA  PZ   NOGX NOGC" z_valence="1.500000000000e1" total_psenergy="-3.866944540762e2" wfc_cutoff="5.660616666772e1" rho_cutoff="2.995283496478e2" l_max="2" l_max_rho="4" l_local="-1" mesh_size="1231" number_of_wfc="5" number_of_proj="6"/>
  <PP_MESH dx="1.250000000000e-2" mesh="1231" xmin="-7.000000000000e0" rmax="1.000000000000e2" zmesh="4.300000000000e1">
    <PP_R>
      2.120655733847712e-5 2.147330299230284e-5 2.174340389340888e-5 2.201690224561056e-5
      2.229384078358186e-5 2.257426277953276e-5 2.285821204997067e-5 2.314573296254677e-5
      2.343687044298862e-5 2.373166998211987e-5 2.403017764296830e-5 2.433244006796322e-5
      2.463850448622349e-5 2.494841872093714e-5 2.526223119683391e-5 2.557999094775159e-5
      2.590174762429776e-5 2.622755150160772e-5 2.655745348720017e-5 2.689150512893158e-5
      2.722975862305057e-5 2.757226682235379e-5 2.791908324444420e-5 2.827026208009336e-5
      2.862585820170887e-5 2.898592717190813e-5 2.935052525220034e-5 2.971970941177731e-5
      3.009353733641507e-5 3.047206743748744e-5 3.085535886109283e-5 3.124347149729597e-5
      3.163646598948591e-5 3.203440374385156e-5 3.243734693897672e-5 3.284535853555538e-5
      3.325850228622963e-5 3.367684274555105e-5 3.410044528006751e-5 3.452937607853690e-5
      3.496370216226913e-5 3.540349139559840e-5 3.584881249648722e-5 3.629973504726354e-5
      3.675632950549341e-5 3.721866721498987e-5 3.768682041696062e-5 3.816086226129595e-5
      3.864086681799846e-5 3.912690908875678e-5 3.961906501866452e-5 4.011741150808704e-5
      4.062202642467721e-5 4.113298861554233e-5 4.165037791956442e-5 4.217427517987477e-5
      4.270476225648622e-5 4.324192203908375e-5 4.378583845997621e-5 4.433659650721109e-5
      4.489428223785370e-5 4.545898279143412e-5 4.603078640356272e-5 4.660978241971718e-5
      4.719606130920312e-5 4.778971467928974e-5 4.839083528952393e-5 4.899951706622405e-5
      4.961585511715599e-5 5.023994574639429e-5 5.087188646936943e-5 5.151177602810504e-5
      5.215971440664658e-5 5.281580284668388e-5 5.348014386337061e-5 5.415284126134219e-5
      5.483400015093565e-5 5.552372696461333e-5 5.622212947359310e-5 5.692931680468797e-5
      5.764539945735717e-5 5.837048932097206e-5 5.910469969229903e-5 5.984814529320232e-5
      6.060094228856973e-5 6.136320830446330e-5 6.213506244649885e-5 6.291662531845642e-5
      6.370801904112485e-5 6.450936727138346e-5 6.532079522152356e-5 6.614242967881321e-5
      6.697439902530799e-5 6.781683325791087e-5 6.866986400868480e-5 6.953362456542001e-5
      7.040824989246081e-5 7.129387665179401e-5 7.219064322440254e-5 7.309868973188792e-5
      7.401815805836436e-5 7.494919187262852e-5 7.589193665060811e-5 7.684653969809261e-5
      7.781315017375052e-5 7.879191911243516e-5 7.978299944878451e-5 8.078654604111751e-5
      8.180271569563089e-5 8.283166719090069e-5 8.387356130269142e-5 8.492856082907775e-5
      8.599683061588214e-5 8.707853758243209e-5 8.817385074764205e-5 8.928294125642239e-5
      9.040598240642163e-5 9.154314967510427e-5 9.269462074716955e-5 9.386057554231531e-5
      9.504119624335040e-5 9.623666732466132e-5 9.744717558103675e-5 9.867291015685442e-5
      9.991406257563582e-5 1.011708267699714e-4 1.024433991118234e-4 1.037319784432094e-4
      1.050367661072713e-4 1.063579659797366e-4 1.076957845007732e-4 1.090504307072468e-4
      1.104221162653832e-4 1.118110555038415e-4 1.132174654472038e-4 1.146415658498849e-4
      1.160835792304702e-4 1.175437309064841e-4 1.190222490295965e-4 1.205193646212727e-4
      1.220353116088694e-4 1.235703268621878e-4 1.251246502304842e-4 1.266985245799471e-4
      1.282921958316459e-4 1.299059129999558e-4 1.315399282314676e-4 1.331944968443857e-4
      1.348698773684219e-4 1.365663315851919e-4 1.382841245691185e-4 1.400235247288502e-4
      1.417848038492009e-4 1.435682371336163e-4 1.453741032471758e-4 1.472026843601336e-4
      1.490542661920089e-4 1.509291380562299e-4 1.528275929053398e-4 1.547499273767715e-4
      1.566964418391969e-4 1.586674404394611e-4 1.606632311501054e-4 1.626841258174887e-4
      1.647304402105146e-4 1.668024940699697e-4 1.689006111584859e-4 1.710251193111264e-4
      1.731763504866125e-4 1.753546408191925e-4 1.775603306711619e-4 1.797937646860482e-4
      1.820552918424598e-4 1.843452655086161e-4 1.866640434975619e-4 1.890119881230747e-4
      1.913894662562798e-4 1.937968493829723e-4 1.962345136616635e-4 1.987028399823569e-4
      2.012022140260612e-4 2.037330263250564e-4 2.062956723239130e-4 2.088905524412818e-4
      2.115180721324610e-4 2.141786419527475e-4 2.168726776215890e-4 2.196006000875398e-4
      2.223628355940350e-4 2.251598157459928e-4 2.279919775772518e-4 2.308597636188607e-4
      2.337636219682230e-4 2.367040063591133e-4 2.396813762325756e-4 2.426961968087094e-4
      2.457489391593640e-4 2.488400802817425e-4 2.519701031729337e-4 2.551394969053834e-4
      2.583487567033094e-4 2.615983840200852e-4 2.648888866165902e-4 2.682207786405493e-4
      2.715945807068710e-4 2.750108199789911e-4 2.784700302512471e-4 2.819727520322814e-4
      2.855195326294985e-4 2.891109262345836e-4 2.927474940100930e-4 2.964298041771412e-4
      3.001584321041831e-4 3.039339603969182e-4 3.077569789893242e-4 3.116280852358332e-4
      3.155478840046728e-4 3.195169877723754e-4 3.235360167194795e-4 3.276055988274357e-4
      3.317263699767269e-4 3.358989740462297e-4 3.401240630138191e-4 3.444022970582419e-4
      3.487343446622725e-4 3.531208827171616e-4 3.575625966284054e-4 3.620601804228393e-4
      3.666143368570811e-4 3.712257775273400e-4 3.758952229806017e-4 3.806234028272192e-4
      3.854110558549129e-4 3.902589301442083e-4 3.951677831853275e-4 4.001383819965438e-4
      4.051715032440352e-4 4.102679333632364e-4 4.154284686817217e-4 4.206539155436352e-4
      4.259450904356786e-4 4.313028201146950e-4 4.367279417368469e-4 4.422213029884245e-4
      4.477837622183007e-4 4.534161885720464e-4 4.591194621277390e-4 4.648944740334751e-4
      4.707421266466137e-4 4.766633336747734e-4 4.826590203185987e-4 4.887301234163263e-4
      4.948775915901669e-4 5.011023853945296e-4 5.074054774661109e-4 5.137878526758708e-4
      5.202505082829210e-4 5.267944540903482e-4 5.334207126029984e-4 5.401303191872460e-4
      5.469243222327700e-4 5.538037833163694e-4 5.607697773678343e-4 5.678233928379078e-4
      5.749657318683581e-4 5.821979104641896e-4 5.895210586680220e-4 5.969363207366612e-4
      6.044448553198918e-4 6.120478356415189e-4 6.197464496826857e-4 6.275419003674997e-4
      6.354354057509899e-4 6.434281992094321e-4 6.515215296330656e-4 6.597166616212347e-4
      6.680148756799868e-4 6.764174684221505e-4 6.849257527699369e-4 6.935410581600864e-4
      7.022647307515930e-4 7.110981336360487e-4 7.200426470506254e-4 7.290996685937414e-4
      7.382706134434408e-4 7.475569145785133e-4 7.569600230024054e-4 7.664814079699386e-4
      7.761225572168856e-4 7.858849771924316e-4 7.957701932945588e-4 8.057797501083959e-4
      8.159152116475589e-4 8.261781615985340e-4 8.365702035681320e-4 8.470929613340520e-4
      8.577480790986050e-4 8.685372217456189e-4 8.794620751005834e-4 8.905243461940618e-4
      9.017257635284187e-4 9.130680773479027e-4 9.245530599121238e-4 9.361825057729732e-4
      9.479582320550284e-4 9.598820787394779e-4 9.719559089516260e-4 9.841816092520073e-4
      9.965610899311670e-4 1.009096285308148e-3 1.021789154032731e-3 1.034641679391477e-3
      1.047655869617624e-3 1.060833758204870e-3 1.074177404225119e-3 1.087688892650209e-3
      1.101370334677696e-3 1.115223868060732e-3 1.129251657442092e-3 1.143455894692409e-3
      1.157838799252650e-3 1.172402618480916e-3 1.187149628003591e-3 1.202082132070917e-3
      1.217202463917032e-3 1.232512986124554e-3 1.248016090993724e-3 1.263714200916221e-3
      1.279609768753657e-3 1.295705278220846e-3 1.312003244273892e-3 1.328506213503146e-3
      1.345216764531127e-3 1.362137508415432e-3 1.379271089056715e-3 1.396620183611813e-3
      1.414187502912046e-3 1.431975791886796e-3 1.449987829992406e-3 1.468226431646474e-3
      1.486694446667618e-3 1.505394760720757e-3 1.524330295768008e-3 1.543504010525248e-3
      1.562918900924413e-3 1.582578000581633e-3 1.602484381271223e-3 1.622641153405667e-3
      1.643051466521619e-3 1.663718509772028e-3 1.684645512424452e-3 1.705835744365631e-3
      1.727292516612416e-3 1.749019181829126e-3 1.771019134851403e-3 1.793295813216668e-3
      1.815852697701237e-3 1.838693312864202e-3 1.861821227598153e-3 1.885240055686819e-3
      1.908953456369739e-3 1.932965134914013e-3 1.957278843193265e-3 1.981898380273881e-3
      2.006827593008617e-3 2.032070376637683e-3 2.057630675397379e-3 2.083512483136388e-3
      2.109719843939827e-3 2.136256852761137e-3 2.163127656061942e-3 2.190336452459923e-3
      2.217887493384876e-3 2.245785083742997e-3 2.274033582589536e-3 2.302637403809914e-3
      2.331601016809389e-3 2.360928947211420e-3 2.390625777564801e-3 2.420696148059689e-3
      2.451144757252659e-3 2.481976362800842e-3 2.513195782205333e-3 2.544807893563930e-3
      2.576817636333348e-3 2.609230012101017e-3 2.642050085366599e-3 2.675282984333312e-3
      2.708933901709233e-3 2.743008095518664e-3 2.777510889923712e-3 2.812447676056202e-3
      2.847823912860045e-3 2.883645127944216e-3 2.919916918446449e-3 2.956644951907804e-3
      2.993834967158238e-3 3.031492775213295e-3 3.069624260182100e-3 3.108235380186756e-3
      3.147332168293318e-3 3.186920733454476e-3 3.227007261464077e-3 3.267598015923678e-3
      3.308699339221248e-3 3.350317653522170e-3 3.392459461772731e-3 3.435131348716205e-3
      3.478339981921747e-3 3.522092112826201e-3 3.566394577789034e-3 3.611254299160535e-3
      3.656678286363434e-3 3.702673636988147e-3 3.749247537901788e-3 3.796407266371125e-3
      3.844160191199687e-3 3.892513773879129e-3 3.941475569755121e-3 3.991053229207880e-3
      4.041254498847562e-3 4.092087222724686e-3 4.143559343555779e-3 4.195678903964438e-3
      4.248454047738018e-3 4.301893021100099e-3 4.356004173999001e-3 4.410795961412449e-3
      4.466276944668702e-3 4.522455792784271e-3 4.579341283818467e-3 4.636942306245004e-3
      4.695267860340825e-3 4.754327059592420e-3 4.814129132119832e-3 4.874683422118554e-3
      4.935999391319607e-3 4.998086620467922e-3 5.060954810819372e-3 5.124613785656605e-3
      5.189073491823949e-3 5.254344001281649e-3 5.320435512679593e-3 5.387358352950905e-3
      5.455122978925530e-3 5.523739978964143e-3 5.593220074612609e-3 5.663574122277227e-3
      5.734813114921085e-3 5.806948183781715e-3 5.879990600110383e-3 5.953951776933258e-3
      6.028843270834688e-3 6.104676783762963e-3 6.181464164858762e-3 6.259217412306601e-3
      6.337948675209595e-3 6.417670255487749e-3 6.498394609800173e-3 6.580134351491465e-3
      6.662902252562562e-3 6.746711245666404e-3 6.831574426128673e-3 6.917505053993969e-3
      7.004516556097728e-3 7.092622528164170e-3 7.181836736930696e-3 7.272173122298929e-3
      7.363645799512869e-3 7.456269061364440e-3 7.550057380426739e-3 7.645025411315444e-3
      7.741187992978597e-3 7.838560151015221e-3 7.937157100023116e-3 8.036994245976150e-3
      8.138087188631522e-3 8.240451723967182e-3 8.344103846650041e-3 8.449059752535151e-3
      8.555335841196333e-3 8.662948718488675e-3 8.771915199143187e-3 8.882252309394165e-3
      8.993977289639570e-3 9.107107597134860e-3 9.221660908720766e-3 9.337655123585275e-3
      9.455108366060450e-3 9.574038988454390e-3 9.694465573918800e-3 9.816406939352687e-3
      9.939882138342483e-3 1.006491046413925e-2 1.019151145267325e-2 1.031970488560651e-2
      1.044951079342376e-2 1.058094945856218e-2 1.071404141858061e-2 1.084880746936857e-2
      1.098526866839569e-2 1.112344633800196e-2 1.126336206872936e-2 1.140503772269550e-2
      1.154849543700953e-2 1.169375762723118e-2 1.184084699087324e-2 1.198978651094801e-2
      1.214059945955852e-2 1.229330940153483e-2 1.244794019811605e-2 1.260451601067877e-2
      1.276306130451225e-2 1.292360085264120e-2 1.308615973969665e-2 1.325076336583542e-2
      1.341743745070900e-2 1.358620803748223e-2 1.375710149690268e-2 1.393014453142106e-2
      1.410536417936357e-2 1.428278781915670e-2 1.446244317360512e-2 1.464435831422350e-2
      1.482856166562265e-2 1.501508200995098e-2 1.520394849139180e-2 1.539519062071708e-2
      1.558883827989860e-2 1.578492172677709e-2 1.598347159979005e-2 1.618451892275912e-2
      1.638809510973753e-2 1.659423196991867e-2 1.680296171260634e-2 1.701431695224748e-2
      1.722833071352833e-2 1.744503643653447e-2 1.766446798197602e-2 1.788665963647840e-2
      1.811164611793965e-2 1.833946258095527e-2 1.857014462231110e-2 1.880372828654542e-2
      1.904025007158099e-2 1.927974693442791e-2 1.952225629695831e-2 1.976781605175345e-2
      2.001646456802461e-2 2.026824069760834e-2 2.052318378103710e-2 2.078133365368641e-2
      2.104273065199906e-2 2.130741561978786e-2 2.157542991461753e-2 2.184681541426688e-2
      2.212161452327242e-2 2.239987017955400e-2 2.268162586112403e-2 2.296692559288098e-2
      2.325581395348837e-2 2.354833608234034e-2 2.384453768661464e-2 2.414446504841455e-2
      2.444816503200058e-2 2.475568509111301e-2 2.506707327638678e-2 2.538237824285935e-2
      2.570164925757321e-2 2.602493620727398e-2 2.635228960620526e-2 2.668376060400169e-2
      2.701940099368101e-2 2.735926321973701e-2 2.770340038633393e-2 2.805186626560420e-2
      2.840471530605047e-2 2.876200264105314e-2 2.912378409748523e-2 2.949011620443536e-2
      2.986105620204050e-2 3.023666205043003e-2 3.061699243878190e-2 3.100210679449311e-2
      3.139206529246521e-2 3.178692886450689e-2 3.218675920885469e-2 3.259161879981334e-2
      3.300157089751763e-2 3.341667955781686e-2 3.383700964228375e-2 3.426262682834921e-2
      3.469359761956443e-2 3.512998935599240e-2 3.557187022472976e-2 3.601930927056123e-2
      3.647237640674812e-2 3.693114242595219e-2 3.739567901129730e-2 3.786605874757003e-2
      3.834235513256112e-2 3.882464258854984e-2 3.931299647393237e-2 3.980749309499687e-2
      4.030820971784642e-2 4.081522458047205e-2 4.132861690497764e-2 4.184846690995835e-2
      4.237485582303512e-2 4.290786589354654e-2 4.344758040540052e-2 4.399408369008768e-2
      4.454746113985806e-2 4.510779922106407e-2 4.567518548767090e-2 4.624970859493702e-2
      4.683145831326691e-2 4.742052554223758e-2 4.801700232480204e-2 4.862098186167110e-2
      4.923255852587616e-2 4.985182787751534e-2 5.047888667868472e-2 5.111383290859774e-2
      5.175676577889464e-2 5.240778574914438e-2 5.306699454254195e-2 5.373449516180243e-2
      5.441039190525563e-2 5.509479038314282e-2 5.578779753411856e-2 5.648952164196021e-2
      5.720007235248723e-2 5.791956069069377e-2 5.864809907809651e-2 5.938580135030063e-2
      6.013278277478713e-2 6.088916006892330e-2 6.165505141820018e-2 6.243057649469935e-2
      6.321585647579174e-2 6.401101406307226e-2 6.481617350153144e-2 6.563146059896975e-2
      6.645700274565502e-2 6.729292893422700e-2 6.813936977985360e-2 6.899645754063881e-2
      6.986432613828912e-2 7.074311117903874e-2 7.163294997483794e-2 7.253398156480920e-2
      7.344634673697136e-2 7.437018805023894e-2 7.530564985669681e-2 7.625287832415520e-2
      7.721202145898955e-2 7.818322912926583e-2 7.916665308815856e-2 8.016244699766226e-2
      8.117076645260097e-2 8.219176900494125e-2 8.322561418840884e-2 8.427246354341722e-2
      8.533248064230804e-2 8.640583111490939e-2 8.749268267441662e-2 8.859320514359680e-2
      8.970757048132494e-2 9.083595280945243e-2 9.197852844001343e-2 9.313547590277510e-2
      9.430697597313200e-2 9.549321170035373e-2 9.669436843618630e-2 9.791063386381303e-2
      9.914219802718192e-2 1.003892533606987e-1 1.016519947192967e-1 1.029306194088823e-1
      1.042253272171643e-1 1.055363204448723e-1 1.068638039373649e-1 1.082079851166388e-1
      1.095690740137383e-1 1.109472833015722e-1 1.123428283281461e-1 1.137559271502095e-1
      1.151868005673282e-1 1.166356721563852e-1 1.181027683065135e-1 1.195883182544719e-1
      1.210925541204616e-1 1.226157109443974e-1 1.241580267226321e-1 1.257197424451434e-1
      1.273011021331908e-1 1.289023528774424e-1 1.305237448765850e-1 1.321655314764174e-1
      1.338279692094356e-1 1.355113178349181e-1 1.372158403795120e-1 1.389418031783331e-1
      1.406894759165802e-1 1.424591316716741e-1 1.442510469559273e-1 1.460655017597481e-1
      1.479027795953914e-1 1.497631675412573e-1 1.516469562867468e-1 1.535544401776845e-1
      1.554859172623086e-1 1.574416893378435e-1 1.594220619976554e-1 1.614273446790008e-1
      1.634578507113791e-1 1.655138973654883e-1 1.675958059028015e-1 1.697039016257636e-1
      1.718385139286198e-1 1.739999763488857e-1 1.761886266194616e-1 1.784048067214053e-1
      1.806488629373669e-1 1.829211459056952e-1 1.852220106752275e-1 1.875518167607646e-1
      1.899109281992476e-1 1.922997136066389e-1 1.947185462355178e-1 1.971678040334042e-1
      1.996478697018116e-1 2.021591307560465e-1 2.047019795857584e-1 2.072768135162497e-1
      2.098840348705612e-1 2.125240510323332e-1 2.151972745094625e-1 2.179041229985566e-1
      2.206450194501983e-1 2.234203921350352e-1 2.262306747106951e-1 2.290763062895484e-1
      2.319577315073192e-1 2.348754005925594e-1 2.378297694370002e-1 2.408212996667836e-1
      2.438504587145947e-1 2.469177198926979e-1 2.500235624668919e-1 2.531684717313988e-1
      2.563529390846885e-1 2.595774621062643e-1 2.628425446344091e-1 2.661486968449098e-1
      2.694964353307768e-1 2.728862831829584e-1 2.763187700720789e-1 2.797944323311986e-1
      2.833138130396157e-1 2.868774621077272e-1 2.904859363629491e-1 2.941397996367261e-1
      2.978396228526289e-1 3.015859841155613e-1 3.053794688020937e-1 3.092206696519253e-1
      3.131101868605048e-1 3.170486281728085e-1 3.210366089783045e-1 3.250747524071081e-1
      3.291636894273444e-1 3.333040589437430e-1 3.374965078974634e-1 3.417416913671847e-1
      3.460402726714616e-1 3.503929234723673e-1 3.548003238804460e-1 3.592631625609774e-1
      3.637821368415854e-1 3.683579528211961e-1 3.729913254803646e-1 3.776829787929967e-1
      3.824336458394665e-1 3.872440689211661e-1 3.921149996764895e-1 3.970471991982759e-1
      4.020414381527363e-1 4.070984968998673e-1 4.122191656153870e-1 4.174042444142013e-1
      4.226545434754202e-1 4.279708831689551e-1 4.333540941836981e-1 4.388050176573229e-1
      4.443245053077132e-1 4.499134195660423e-1 4.555726337115353e-1 4.613030320079147e-1
      4.671055098415737e-1 4.729809738614797e-1 4.789303421208380e-1 4.849545442205450e-1
      4.910545214544332e-1 4.972312269563568e-1 5.034856258491180e-1 5.098186953952668e-1
      5.162314251498062e-1 5.227248171148053e-1 5.292998858959704e-1 5.359576588611768e-1
      5.426991763009935e-1 5.495254915912383e-1 5.564376713575616e-1 5.634367956421158e-1
      5.705239580723110e-1 5.777002660316941e-1 5.849668408329860e-1 5.923248178932813e-1
      5.997753469114667e-1 6.073195920478604e-1 6.149587321061116e-1 6.226939607173990e-1
      6.305264865269281e-1 6.384575333827930e-1 6.464883405272022e-1 6.546201627901082e-1
      6.628542707852865e-1 6.711919511088613e-1 6.796345065403475e-1 6.881832562462088e-1
      6.968395359859773e-1 7.056046983209758e-1 7.144801128256496e-1 7.234671663015735e-1
      7.325672629941388e-1 7.417818248119651e-1 7.511122915490866e-1 7.605601211099110e-1
      7.701267897370306e-1 7.798137922418828e-1 7.896226422383151e-1 7.995548723790983e-1
      8.096120345953965e-1 8.197957003392684e-1 8.301074608292073e-1 8.405489272987660e-1
      8.511217312483264e-1 8.618275247000138e-1 8.726679804558373e-1 8.836447923590651e-1
      8.947596755588869e-1 9.060143667784191e-1 9.174106245860594e-1 9.289502296702775e-1
      9.406349851178472e-1 9.524667166955767e-1 9.644472731356004e-1 9.765785264242329e-1
      9.888623720944834e-1 1.001300729522232e0 1.013895542226128e0 1.026648778171286e0
      1.039562430076764e0 1.052638515726948e0 1.065879078286826e0 1.079286186621232e0
      1.092861935618124e0 1.106608446515900e0 1.120527867234856e0 1.134622372712801e0
      1.148894165244888e0 1.163345474827740e0 1.177978559507876e0 1.192795705734551e0
      1.207799228717011e0 1.222991472786243e0 1.238374811761295e0 1.253951649320176e0
      1.269724419375447e0 1.285695586454523e0 1.301867646084748e0 1.318243125183346e0
      1.334824582452238e0 1.351614608777860e0 1.368615827635987e0 1.385830895501651e0
      1.403262502264234e0 1.420913371647753e0 1.438786261636462e0 1.456883964905789e0
      1.475209309258682e0 1.493765158067487e0 1.512554410721326e0 1.531580003079156e0
      1.550844907928493e0 1.570352135449910e0 1.590104733687401e0 1.610105789024620e0
      1.630358426667159e0 1.650865811130859e0 1.671631146736257e0 1.692657678109296e0
      1.713948690688276e0 1.735507511237230e0 1.757337508365737e0 1.779442093055253e0
      1.801824719192116e0 1.824488884107190e0 1.847438129122357e0 1.870676040103844e0
      1.894206248022515e0 1.918032429521235e0 1.942158307489332e0 1.966587651644326e0
      1.991324279120946e0 2.016372055067556e0 2.041734893250114e0 2.067416756663682e0
      2.093421658151670e0 2.119753661032847e0 2.146416879736230e0 2.173415480443994e0
      2.200753681742422e0 2.228435755281090e0 2.256466026440313e0 2.284848875006978e0
      2.313588735858929e0 2.342690099657887e0 2.372157513551155e0 2.401995581882113e0
      2.432208966909633e0 2.462802389536605e0 2.493780630047548e0 2.525148528855572e0
      2.556910987258689e0 2.589072968205636e0 2.621639497071380e0 2.654615662442303e0
      2.688006616911341e0 2.721817577883068e0 2.756053828388915e0 2.790720717912687e0
      2.825823663226394e0 2.861368149236664e0 2.897359729841755e0 2.933804028799353e0
      2.970706740605326e0 3.008073631383465e0 3.045910539786479e0 3.084223377908295e0
      3.123018132207803e0 3.162300864444305e0 3.202077712624622e0 3.242354891962213e0
      3.283138695848302e0 3.324435496835210e0 3.366251747632119e0 3.408593982113283e0
      3.451468816338991e0 3.494882949589325e0 3.538843165410921e0 3.583356332676952e0
      3.628429406660351e0 3.674069430120638e0 3.720283534404341e0 3.767078940559264e0
      3.814462960462837e0 3.862442997964561e0 3.911026550042918e0 3.960221207976771e0
      4.010034658531496e0 4.060474685160103e0 4.111549169219360e0 4.163266091201318e0
      4.215633531980265e0 4.268659674075349e0 4.322352802929171e0 4.376721308202337e0
      4.431773685084418e0 4.487518535621316e0 4.543964570059324e0 4.601120608206180e0
      4.658995580809113e0 4.717598530950347e0 4.776938615460078e0 4.837025106347224e0
      4.897867392248250e0 4.959474979894094e0 5.021857495595677e0 5.085024686748004e0
      5.148986423353190e0 5.213752699562727e0 5.279333635239026e0 5.345739477536717e0
      5.412980602503774e0 5.481067516702758e0 5.550010858852555e0 5.619821401490623e0
      5.690510052656288e0 5.762087857595124e0 5.834566000484758e0 5.907955806182494e0
      5.982268741994766e0 6.057516419468995e0 6.133710596207890e0 6.210863177706561e0
      6.288986219212860e0 6.368091927610943e0 6.448192663328697e0 6.529300942269059e0
      6.611429437765603e0 6.694590982562869e0 6.778798570821399e0 6.864065360148193e0
      6.950404673652572e0 7.037830002027904e0 7.126355005659642e0 7.215993516759684e0
      7.306759541527772e0 7.398667262339955e0 7.491731039964571e0 7.585965415806240e0
      7.681385114177882e0 7.778005044601513e0 7.875840304137850e0 7.974906179745219e0
      8.075218150668258e0 8.176791890856483e0 8.279643271413468e0 8.383788363076691e0
      8.489243438728579e0 8.596024975939285e0 8.704149659541214e0 8.813634384236176e0
      8.924496257235168e0 9.036752600931367e0 9.150420955606894e0 9.265519082173395e0
      9.382064964947329e0 9.500076814460012e0 9.619573070302994e0 9.740572404009402e0
      9.863093721971270e0 9.987156168393811e0 1.011277912828671e1 1.023998223049300e1
      1.036878535075622e1 1.049920861482594e1 1.063127240160253e1 1.076499734632139e1
      1.090040434377714e1 1.103751455158867e1 1.117634939350487e1 1.131693056275226e1
      1.145928002542458e1 1.160342002391493e1 1.174937308039138e1 1.189716200031591e1
      1.204680987600796e1 1.219834009025257e1 1.235177631995398e1 1.250714253983529e1
      1.266446302618441e1 1.282376236064741e1 1.298506543406944e1 1.314839745038384e1
      1.331378393055051e1 1.348125071654341e1 1.365082397538858e1 1.382253020325275e1
      1.399639622958331e1 1.417244922130066e1 1.435071668704288e1 1.453122648146421e1
      1.471400680958731e1 1.489908623121025e1 1.508649366536928e1 1.527625839485721e1
      1.546841007079911e1 1.566297871728534e1 1.585999473606269e1 1.605948891128499e1
      1.626149241432293e1 1.646603680863487e1 1.667315405469861e1 1.688287651500515e1
      1.709523695911567e1 1.731026856878156e1 1.752800494312933e1 1.774848010391050e1
      1.797172850081744e1 1.819778501686644e1 1.842668497384796e1 1.865846413784602e1
      1.889315872482661e1 1.913080540629634e1 1.937144131503276e1 1.961510405088613e1
      1.986183168665469e1 2.011166277403353e1 2.036463634963828e1 2.062079194110487e1
      2.088016957326555e1 2.114280977440308e1 2.140875358258328e1 2.167804255206717e1
      2.195071875980418e1 2.222682481200646e1 2.250640385080643e1 2.278949956099777e1
      2.307615617686108e1 2.336641848907586e1 2.366033185171887e1 2.395794218935102e1
      2.425929600419312e1 2.456444038339175e1 2.487342300637708e1 2.518629215231247e1
      2.550309670763857e1 2.582388617371175e1 2.614871067453862e1 2.647762096460840e1
      2.681066843682299e1 2.714790513052757e1 2.748938373964168e1 2.783515762089264e1
      2.818528080215298e1 2.853980799088202e1 2.889879458267433e1 2.926229666991527e1
      2.963037105054545e1 3.000307523693578e1 3.038046746487356e1 3.076260670266227e1
      3.114955266033533e1 3.154136579898578e1 3.193810734021378e1 3.233983927569221e1
      3.274662437685338e1 3.315852620469703e1 3.357560911972164e1 3.399793829198138e1
      3.442557971126852e1 3.485860019742494e1 3.529706741078263e1 3.574104986273564e1
      3.619061692644550e1 3.664583884768042e1 3.710678675579184e1 3.757353267482827e1
      3.804614953478900e1 3.852471118302012e1 3.900929239575264e1 3.949996888978703e1
      3.999681733432382e1 4.049991536294320e1 4.100934158573581e1 4.152517560158528e1
      4.204749801060612e1 4.257639042673750e1 4.311193549049531e1 4.365421688188551e1
      4.420331933347862e1 4.475932864364994e1 4.532233168998546e1 4.589241644285647e1
      4.646967197916561e1 4.705418849626468e1 4.764605732604879e1 4.824537094922682e1
      4.885222300977158e1 4.946670832955230e1 5.008892292315023e1 5.071896401286161e1
      5.135693004388862e1 5.200292069972139e1 5.265703691771435e1 5.331938090485718e1
      5.399005615374552e1 5.466916745875158e1 5.535682093239828e1 5.605312402194009e1
      5.675818552615119e1 5.747211561232618e1 5.819502583349362e1 5.892702914584614e1
      5.966823992639078e1 6.041877399081979e1 6.117874861160781e1 6.194828253633563e1
      6.272749600624442e1 6.351651077502437e1 6.431545012783815e1 6.512443890058520e1
      6.594360349940729e1 6.677307192043934e1 6.761297376980996e1 6.846344028389163e1
      6.932460434980763e1 7.019660052619543e1 7.107956506423140e1 7.197363592892128e1
      7.287895282065641e1 7.379565719704316e1 7.472389229500552e1 7.566380315316578e1
      7.661553663450805e1 7.757924144932485e1 7.855506817845430e1 7.954316929680830e1
      8.054369919719662e1 8.155681421445207e1 8.258267264985703e1 8.362143479587926e1
      8.467326296121765e1 8.573832149616264e1 8.681677681827756e1 8.790879743840028e1
      8.901455398697456e1 9.013421924071102e1 9.126796814958315e1 9.241597786416493e1
      9.357842776330960e1 9.475549948217909e1 9.594737694062436e1 9.715424637192292e1
      9.837629635187914e1 9.961371782828824e1 1.008667041507737e2